 Entering Link 1 = C:\G16W\l1.exe PID=     34436.
  
 Copyright (c) 1988,1990,1992,1993,1995,1998,2003,2009,2016,
            Gaussian, Inc.  All Rights Reserved.
  
 This is part of the Gaussian(R) 16 program.  It is based on
 the Gaussian(R) 09 system (copyright 2009, Gaussian, Inc.),
 the Gaussian(R) 03 system (copyright 2003, Gaussian, Inc.),
 the Gaussian(R) 98 system (copyright 1998, Gaussian, Inc.),
 the Gaussian(R) 94 system (copyright 1995, Gaussian, Inc.),
 the Gaussian 92(TM) system (copyright 1992, Gaussian, Inc.),
 the Gaussian 90(TM) system (copyright 1990, Gaussian, Inc.),
 the Gaussian 88(TM) system (copyright 1988, Gaussian, Inc.),
 the Gaussian 86(TM) system (copyright 1986, Carnegie Mellon
 University), and the Gaussian 82(TM) system (copyright 1983,
 Carnegie Mellon University). Gaussian is a federally registered
 trademark of Gaussian, Inc.
  
 This software contains proprietary and confidential information,
 including trade secrets, belonging to Gaussian, Inc.
  
 This software is provided under written license and may be
 used, copied, transmitted, or stored only in accord with that
 written license.
  
 The following legend is applicable only to US Government
 contracts under FAR:
  
                    RESTRICTED RIGHTS LEGEND
  
 Use, reproduction and disclosure by the US Government is
 subject to restrictions as set forth in subparagraphs (a)
 and (c) of the Commercial Computer Software - Restricted
 Rights clause in FAR 52.227-19.
  
 Gaussian, Inc.
 340 Quinnipiac St., Bldg. 40, Wallingford CT 06492
  
  
 ---------------------------------------------------------------
 Warning -- This program may not be used in any manner that
 competes with the business of Gaussian, Inc. or will provide
 assistance to any competitor of Gaussian, Inc.  The licensee
 of this program is prohibited from giving any competitor of
 Gaussian, Inc. access to this program.  By using this program,
 the user acknowledges that Gaussian, Inc. is engaged in the
 business of creating and licensing software in the field of
 computational chemistry and represents and warrants to the
 licensee that it is not a competitor of Gaussian, Inc. and that
 it will not use this program in any manner prohibited above.
 ---------------------------------------------------------------
  

 Cite this work as:
 Gaussian 16, Revision A.03,
 M. J. Frisch, G. W. Trucks, H. B. Schlegel, G. E. Scuseria, 
 M. A. Robb, J. R. Cheeseman, G. Scalmani, V. Barone, 
 G. A. Petersson, H. Nakatsuji, X. Li, M. Caricato, A. V. Marenich, 
 J. Bloino, B. G. Janesko, R. Gomperts, B. Mennucci, H. P. Hratchian, 
 J. V. Ortiz, A. F. Izmaylov, J. L. Sonnenberg, D. Williams-Young, 
 F. Ding, F. Lipparini, F. Egidi, J. Goings, B. Peng, A. Petrone, 
 T. Henderson, D. Ranasinghe, V. G. Zakrzewski, J. Gao, N. Rega, 
 G. Zheng, W. Liang, M. Hada, M. Ehara, K. Toyota, R. Fukuda, 
 J. Hasegawa, M. Ishida, T. Nakajima, Y. Honda, O. Kitao, H. Nakai, 
 T. Vreven, K. Throssell, J. A. Montgomery, Jr., J. E. Peralta, 
 F. Ogliaro, M. J. Bearpark, J. J. Heyd, E. N. Brothers, K. N. Kudin, 
 V. N. Staroverov, T. A. Keith, R. Kobayashi, J. Normand, 
 K. Raghavachari, A. P. Rendell, J. C. Burant, S. S. Iyengar, 
 J. Tomasi, M. Cossi, J. M. Millam, M. Klene, C. Adamo, R. Cammi, 
 J. W. Ochterski, R. L. Martin, K. Morokuma, O. Farkas, 
 J. B. Foresman, and D. J. Fox, Gaussian, Inc., Wallingford CT, 2016.
 
 ******************************************
 Gaussian 16:  IA32W-G16RevA.03 25-Dec-2016
                01-Apr-2025 
 ******************************************
 %chk=D:\gfile\pywfn\C6H6.chk
 ---------------------------------------------
 # b3lyp/6-31g(d) pop=full gfinput iop(3/33=1)
 ---------------------------------------------
 1/38=1,172=1/1;
 2/12=2,17=6,18=5,40=1/2;
 3/5=1,6=6,7=1,11=2,24=10,25=1,30=1,33=1,74=-5/1,2,3;
 4//1;
 5/5=2,38=5/2;
 6/7=3,28=1/1;
 99/5=1,9=1/99;
 -------------------
 Title Card Required
 -------------------
 Symbolic Z-matrix:
 Charge =  0 Multiplicity = 1
 C                     0.        1.4014    0. 
 C                     1.21365   0.7007    0. 
 C                     1.21365  -0.7007    0. 
 C                     0.       -1.4014    0. 
 C                    -1.21365  -0.7007    0. 
 C                    -1.21365   0.7007    0. 
 H                     0.        2.4714    0. 
 H                     2.1403    1.2357    0. 
 H                     2.1403   -1.2357    0. 
 H                     0.       -2.4714    0. 
 H                    -2.1403   -1.2357    0. 
 H                    -2.1403    1.2357    0. 
 
                          Input orientation:                          
 ---------------------------------------------------------------------
 Center     Atomic      Atomic             Coordinates (Angstroms)
 Number     Number       Type             X           Y           Z
 ---------------------------------------------------------------------
      1          6           0        0.000000    1.401400    0.000000
      2          6           0        1.213648    0.700700    0.000000
      3          6           0        1.213648   -0.700700    0.000000
      4          6           0        0.000000   -1.401400    0.000000
      5          6           0       -1.213648   -0.700700    0.000000
      6          6           0       -1.213648    0.700700    0.000000
      7          1           0        0.000000    2.471400    0.000000
      8          1           0        2.140295    1.235700    0.000000
      9          1           0        2.140295   -1.235700    0.000000
     10          1           0        0.000000   -2.471400    0.000000
     11          1           0       -2.140295   -1.235700    0.000000
     12          1           0       -2.140295    1.235700    0.000000
 ---------------------------------------------------------------------
                    Distance matrix (angstroms):
                    1          2          3          4          5
     1  C    0.000000
     2  C    1.401400   0.000000
     3  C    2.427296   1.401400   0.000000
     4  C    2.802800   2.427296   1.401400   0.000000
     5  C    2.427296   2.802800   2.427296   1.401400   0.000000
     6  C    1.401400   2.427296   2.802800   2.427296   1.401400
     7  H    1.070000   2.146700   3.396345   3.872800   3.396345
     8  H    2.146700   1.070000   2.146700   3.396345   3.872800
     9  H    3.396345   2.146700   1.070000   2.146700   3.396345
    10  H    3.872800   3.396345   2.146700   1.070000   2.146700
    11  H    3.396345   3.872800   3.396345   2.146700   1.070000
    12  H    2.146700   3.396345   3.872800   3.396345   2.146700
                    6          7          8          9         10
     6  C    0.000000
     7  H    2.146700   0.000000
     8  H    3.396345   2.471400   0.000000
     9  H    3.872800   4.280590   2.471400   0.000000
    10  H    3.396345   4.942800   4.280590   2.471400   0.000000
    11  H    2.146700   4.280590   4.942800   4.280590   2.471400
    12  H    1.070000   2.471400   4.280590   4.942800   4.280590
                   11         12
    11  H    0.000000
    12  H    2.471400   0.000000
 Stoichiometry    C6H6
 Framework group  D6H[3C2'(HC.CH)]
 Deg. of freedom     2
 Full point group                 D6H     NOp  24
 Largest Abelian subgroup         D2H     NOp   8
 Largest concise Abelian subgroup D2      NOp   4
                         Standard orientation:                         
 ---------------------------------------------------------------------
 Center     Atomic      Atomic             Coordinates (Angstroms)
 Number     Number       Type             X           Y           Z
 ---------------------------------------------------------------------
      1          6           0        0.000000    1.401400    0.000000
      2          6           0        1.213648    0.700700    0.000000
      3          6           0        1.213648   -0.700700    0.000000
      4          6           0        0.000000   -1.401400    0.000000
      5          6           0       -1.213648   -0.700700    0.000000
      6          6           0       -1.213648    0.700700    0.000000
      7          1           0        0.000000    2.471400    0.000000
      8          1           0        2.140295    1.235700    0.000000
      9          1           0        2.140295   -1.235700    0.000000
     10          1           0        0.000000   -2.471400    0.000000
     11          1           0       -2.140295   -1.235700    0.000000
     12          1           0       -2.140295    1.235700    0.000000
 ---------------------------------------------------------------------
 Rotational constants (GHZ):           5.6677156           5.6677156           2.8338578
 Standard basis: 6-31G(d) (6D, 7F)
                         Coordinates in L301:                         
 ---------------------------------------------------------------------
 Center     Atomic      Atomic             Coordinates (Angstroms)
 Number     Number       Type             X           Y           Z
 ---------------------------------------------------------------------
      1          6           0        0.000000    1.401400    0.000000
      2          6           0        1.213648    0.700700    0.000000
      3          6           0        1.213648   -0.700700    0.000000
      4          6           0        0.000000   -1.401400    0.000000
      5          6           0       -1.213648   -0.700700    0.000000
      6          6           0       -1.213648    0.700700    0.000000
      7          1           0        0.000000    2.471400    0.000000
      8          1           0        2.140295    1.235700    0.000000
      9          1           0        2.140295   -1.235700    0.000000
     10          1           0        0.000000   -2.471400    0.000000
     11          1           0       -2.140295   -1.235700    0.000000
     12          1           0       -2.140295    1.235700    0.000000
 ---------------------------------------------------------------------
 FixB: optimizing general contractions.
 Ernie: Thresh=  0.10000D-02 Tol=  0.10000D-05 Strict=F.
 IA=     1 ShT= 0 ShC= 0 NL=   1 NS=   0.
 IA=     1 L=0 SC=0 ISt=    0 NBk=    0 NP=    0 IndPr=    0.
 IA=     1 ShT= 1 ShC= 0 NL=   2 NS=   1.
 IA=     1 L=1 SC=0 ISt=    0 NBk=    0 NP=    0 IndPr=    0.
 IA=     1 ShT= 2 ShC= 2 NL=   1 NS=   1.
 IA=     1 L=2 SC=2 ISt=    0 NBk=    0 NP=    0 IndPr=    0.
 IA=     2 ShT= 0 ShC= 0 NL=   1 NS=   0.
 IA=     2 L=0 SC=0 ISt=    0 NBk=    0 NP=    0 IndPr=    0.
 IA=     2 ShT= 1 ShC= 0 NL=   2 NS=   1.
 IA=     2 L=1 SC=0 ISt=    0 NBk=    0 NP=    0 IndPr=    0.
 IA=     2 ShT= 2 ShC= 2 NL=   1 NS=   1.
 IA=     2 L=2 SC=2 ISt=    0 NBk=    0 NP=    0 IndPr=    0.
 IA=     3 ShT= 0 ShC= 0 NL=   1 NS=   0.
 IA=     3 L=0 SC=0 ISt=    0 NBk=    0 NP=    0 IndPr=    0.
 IA=     3 ShT= 1 ShC= 0 NL=   2 NS=   1.
 IA=     3 L=1 SC=0 ISt=    0 NBk=    0 NP=    0 IndPr=    0.
 IA=     3 ShT= 2 ShC= 2 NL=   1 NS=   1.
 IA=     3 L=2 SC=2 ISt=    0 NBk=    0 NP=    0 IndPr=    0.
 IA=     4 ShT= 0 ShC= 0 NL=   1 NS=   0.
 IA=     4 L=0 SC=0 ISt=    0 NBk=    0 NP=    0 IndPr=    0.
 IA=     4 ShT= 1 ShC= 0 NL=   2 NS=   1.
 IA=     4 L=1 SC=0 ISt=    0 NBk=    0 NP=    0 IndPr=    0.
 IA=     4 ShT= 2 ShC= 2 NL=   1 NS=   1.
 IA=     4 L=2 SC=2 ISt=    0 NBk=    0 NP=    0 IndPr=    0.
 IA=     5 ShT= 0 ShC= 0 NL=   1 NS=   0.
 IA=     5 L=0 SC=0 ISt=    0 NBk=    0 NP=    0 IndPr=    0.
 IA=     5 ShT= 1 ShC= 0 NL=   2 NS=   1.
 IA=     5 L=1 SC=0 ISt=    0 NBk=    0 NP=    0 IndPr=    0.
 IA=     5 ShT= 2 ShC= 2 NL=   1 NS=   1.
 IA=     5 L=2 SC=2 ISt=    0 NBk=    0 NP=    0 IndPr=    0.
 IA=     6 ShT= 0 ShC= 0 NL=   1 NS=   0.
 IA=     6 L=0 SC=0 ISt=    0 NBk=    0 NP=    0 IndPr=    0.
 IA=     6 ShT= 1 ShC= 0 NL=   2 NS=   1.
 IA=     6 L=1 SC=0 ISt=    0 NBk=    0 NP=    0 IndPr=    0.
 IA=     6 ShT= 2 ShC= 2 NL=   1 NS=   1.
 IA=     6 L=2 SC=2 ISt=    0 NBk=    0 NP=    0 IndPr=    0.
 IA=     7 ShT= 0 ShC= 0 NL=   2 NS=   1.
 IA=     7 L=0 SC=0 ISt=    0 NBk=    0 NP=    0 IndPr=    0.
 IA=     8 ShT= 0 ShC= 0 NL=   2 NS=   1.
 IA=     8 L=0 SC=0 ISt=    0 NBk=    0 NP=    0 IndPr=    0.
 IA=     9 ShT= 0 ShC= 0 NL=   2 NS=   1.
 IA=     9 L=0 SC=0 ISt=    0 NBk=    0 NP=    0 IndPr=    0.
 IA=    10 ShT= 0 ShC= 0 NL=   2 NS=   1.
 IA=    10 L=0 SC=0 ISt=    0 NBk=    0 NP=    0 IndPr=    0.
 IA=    11 ShT= 0 ShC= 0 NL=   2 NS=   1.
 IA=    11 L=0 SC=0 ISt=    0 NBk=    0 NP=    0 IndPr=    0.
 IA=    12 ShT= 0 ShC= 0 NL=   2 NS=   1.
 IA=    12 L=0 SC=0 ISt=    0 NBk=    0 NP=    0 IndPr=    0.
 AO basis set in the form of general basis input (Overlap normalization):
      1 0
 S   6 1.00       0.000000000000
      0.3047524880D+04  0.1834737132D-02
      0.4573695180D+03  0.1403732281D-01
      0.1039486850D+03  0.6884262226D-01
      0.2921015530D+02  0.2321844432D+00
      0.9286662960D+01  0.4679413484D+00
      0.3163926960D+01  0.3623119853D+00
 SP   3 1.00       0.000000000000
      0.7868272350D+01 -0.1193324198D+00  0.6899906659D-01
      0.1881288540D+01 -0.1608541517D+00  0.3164239610D+00
      0.5442492580D+00  0.1143456438D+01  0.7443082909D+00
 SP   1 1.00       0.000000000000
      0.1687144782D+00  0.1000000000D+01  0.1000000000D+01
 D   1 1.00       0.000000000000
      0.8000000000D+00  0.1000000000D+01
 ****
      2 0
 S   6 1.00       0.000000000000
      0.3047524880D+04  0.1834737132D-02
      0.4573695180D+03  0.1403732281D-01
      0.1039486850D+03  0.6884262226D-01
      0.2921015530D+02  0.2321844432D+00
      0.9286662960D+01  0.4679413484D+00
      0.3163926960D+01  0.3623119853D+00
 SP   3 1.00       0.000000000000
      0.7868272350D+01 -0.1193324198D+00  0.6899906659D-01
      0.1881288540D+01 -0.1608541517D+00  0.3164239610D+00
      0.5442492580D+00  0.1143456438D+01  0.7443082909D+00
 SP   1 1.00       0.000000000000
      0.1687144782D+00  0.1000000000D+01  0.1000000000D+01
 D   1 1.00       0.000000000000
      0.8000000000D+00  0.1000000000D+01
 ****
      3 0
 S   6 1.00       0.000000000000
      0.3047524880D+04  0.1834737132D-02
      0.4573695180D+03  0.1403732281D-01
      0.1039486850D+03  0.6884262226D-01
      0.2921015530D+02  0.2321844432D+00
      0.9286662960D+01  0.4679413484D+00
      0.3163926960D+01  0.3623119853D+00
 SP   3 1.00       0.000000000000
      0.7868272350D+01 -0.1193324198D+00  0.6899906659D-01
      0.1881288540D+01 -0.1608541517D+00  0.3164239610D+00
      0.5442492580D+00  0.1143456438D+01  0.7443082909D+00
 SP   1 1.00       0.000000000000
      0.1687144782D+00  0.1000000000D+01  0.1000000000D+01
 D   1 1.00       0.000000000000
      0.8000000000D+00  0.1000000000D+01
 ****
      4 0
 S   6 1.00       0.000000000000
      0.3047524880D+04  0.1834737132D-02
      0.4573695180D+03  0.1403732281D-01
      0.1039486850D+03  0.6884262226D-01
      0.2921015530D+02  0.2321844432D+00
      0.9286662960D+01  0.4679413484D+00
      0.3163926960D+01  0.3623119853D+00
 SP   3 1.00       0.000000000000
      0.7868272350D+01 -0.1193324198D+00  0.6899906659D-01
      0.1881288540D+01 -0.1608541517D+00  0.3164239610D+00
      0.5442492580D+00  0.1143456438D+01  0.7443082909D+00
 SP   1 1.00       0.000000000000
      0.1687144782D+00  0.1000000000D+01  0.1000000000D+01
 D   1 1.00       0.000000000000
      0.8000000000D+00  0.1000000000D+01
 ****
      5 0
 S   6 1.00       0.000000000000
      0.3047524880D+04  0.1834737132D-02
      0.4573695180D+03  0.1403732281D-01
      0.1039486850D+03  0.6884262226D-01
      0.2921015530D+02  0.2321844432D+00
      0.9286662960D+01  0.4679413484D+00
      0.3163926960D+01  0.3623119853D+00
 SP   3 1.00       0.000000000000
      0.7868272350D+01 -0.1193324198D+00  0.6899906659D-01
      0.1881288540D+01 -0.1608541517D+00  0.3164239610D+00
      0.5442492580D+00  0.1143456438D+01  0.7443082909D+00
 SP   1 1.00       0.000000000000
      0.1687144782D+00  0.1000000000D+01  0.1000000000D+01
 D   1 1.00       0.000000000000
      0.8000000000D+00  0.1000000000D+01
 ****
      6 0
 S   6 1.00       0.000000000000
      0.3047524880D+04  0.1834737132D-02
      0.4573695180D+03  0.1403732281D-01
      0.1039486850D+03  0.6884262226D-01
      0.2921015530D+02  0.2321844432D+00
      0.9286662960D+01  0.4679413484D+00
      0.3163926960D+01  0.3623119853D+00
 SP   3 1.00       0.000000000000
      0.7868272350D+01 -0.1193324198D+00  0.6899906659D-01
      0.1881288540D+01 -0.1608541517D+00  0.3164239610D+00
      0.5442492580D+00  0.1143456438D+01  0.7443082909D+00
 SP   1 1.00       0.000000000000
      0.1687144782D+00  0.1000000000D+01  0.1000000000D+01
 D   1 1.00       0.000000000000
      0.8000000000D+00  0.1000000000D+01
 ****
      7 0
 S   3 1.00       0.000000000000
      0.1873113696D+02  0.3349460434D-01
      0.2825394365D+01  0.2347269535D+00
      0.6401216923D+00  0.8137573261D+00
 S   1 1.00       0.000000000000
      0.1612777588D+00  0.1000000000D+01
 ****
      8 0
 S   3 1.00       0.000000000000
      0.1873113696D+02  0.3349460434D-01
      0.2825394365D+01  0.2347269535D+00
      0.6401216923D+00  0.8137573261D+00
 S   1 1.00       0.000000000000
      0.1612777588D+00  0.1000000000D+01
 ****
      9 0
 S   3 1.00       0.000000000000
      0.1873113696D+02  0.3349460434D-01
      0.2825394365D+01  0.2347269535D+00
      0.6401216923D+00  0.8137573261D+00
 S   1 1.00       0.000000000000
      0.1612777588D+00  0.1000000000D+01
 ****
     10 0
 S   3 1.00       0.000000000000
      0.1873113696D+02  0.3349460434D-01
      0.2825394365D+01  0.2347269535D+00
      0.6401216923D+00  0.8137573261D+00
 S   1 1.00       0.000000000000
      0.1612777588D+00  0.1000000000D+01
 ****
     11 0
 S   3 1.00       0.000000000000
      0.1873113696D+02  0.3349460434D-01
      0.2825394365D+01  0.2347269535D+00
      0.6401216923D+00  0.8137573261D+00
 S   1 1.00       0.000000000000
      0.1612777588D+00  0.1000000000D+01
 ****
     12 0
 S   3 1.00       0.000000000000
      0.1873113696D+02  0.3349460434D-01
      0.2825394365D+01  0.2347269535D+00
      0.6401216923D+00  0.8137573261D+00
 S   1 1.00       0.000000000000
      0.1612777588D+00  0.1000000000D+01
 ****

 LdAtmC:  AtmChg=     6.000000     6.000000     6.000000     6.000000     6.000000
 LdAtmC:  AtmChg=     6.000000     1.000000     1.000000     1.000000     1.000000
 LdAtmC:  AtmChg=     1.000000     1.000000
 AtZEff=     -3.6000000     -3.6000000     -3.6000000     -3.6000000     -3.6000000
 AtZEff=     -3.6000000     -1.0000000     -1.0000000     -1.0000000     -1.0000000
 AtZEff=     -1.0000000     -1.0000000
 NEqShl: 
              1            2            3            4            5
     1            1           13            1           13            1
     2            2           14            2           14            2
     3            3           15            3           15            3
     4            4           16            4           16            4
     5            5           17           21            9           21
     6            6           18           22           10           22
     7            7           19           23           11           23
     8            8           20           24           12           24
     9            9           21           17            5           17
    10           10           22           18            6           18
    11           11           23           19            7           19
    12           12           24           20            8           20
    13           13            1           13            1           13
    14           14            2           14            2           14
    15           15            3           15            3           15
    16           16            4           16            4           16
    17           17            5            9           21            9
    18           18            6           10           22           10
    19           19            7           11           23           11
    20           20            8           12           24           12
    21           21            9            5           17            5
    22           22           10            6           18            6
    23           23           11            7           19            7
    24           24           12            8           20            8
    25           25           31           25           31           25
    26           26           32           26           32           26
    27           27           33           35           29           35
    28           28           34           36           30           36
    29           29           35           33           27           33
    30           30           36           34           28           34
    31           31           25           31           25           31
    32           32           26           32           26           32
    33           33           27           29           35           29
    34           34           28           30           36           30
    35           35           29           27           33           27
    36           36           30           28           34           28
              6            7            8            9           10
     1           13            1           13            5            9
     2           14            2           14            6           10
     3           15            3           15            7           11
     4           16            4           16            8           12
     5            9            5           17            9           13
     6           10            6           18           10           14
     7           11            7           19           11           15
     8           12            8           20           12           16
     9            5            9           21           13           17
    10            6           10           22           14           18
    11            7           11           23           15           19
    12            8           12           24           16           20
    13            1           13            1           17           21
    14            2           14            2           18           22
    15            3           15            3           19           23
    16            4           16            4           20           24
    17           21           17            5           21            1
    18           22           18            6           22            2
    19           23           19            7           23            3
    20           24           20            8           24            4
    21           17           21            9            1            5
    22           18           22           10            2            6
    23           19           23           11            3            7
    24           20           24           12            4            8
    25           31           25           31           27           29
    26           32           26           32           28           30
    27           29           27           33           29           31
    28           30           28           34           30           32
    29           27           29           35           31           33
    30           28           30           36           32           34
    31           25           31           25           33           35
    32           26           32           26           34           36
    33           35           33           27           35           25
    34           36           34           28           36           26
    35           33           35           29           25           27
    36           34           36           30           26           28
             11           12           13           14           15
     1           17           21           21           17            9
     2           18           22           22           18           10
     3           19           23           23           19           11
     4           20           24           24           20           12
     5           21            1           17           13            5
     6           22            2           18           14            6
     7           23            3           19           15            7
     8           24            4           20           16            8
     9            1            5           13            9            1
    10            2            6           14           10            2
    11            3            7           15           11            3
    12            4            8           16           12            4
    13            5            9            9            5           21
    14            6           10           10            6           22
    15            7           11           11            7           23
    16            8           12           12            8           24
    17            9           13            5            1           17
    18           10           14            6            2           18
    19           11           15            7            3           19
    20           12           16            8            4           20
    21           13           17            1           21           13
    22           14           18            2           22           14
    23           15           19            3           23           15
    24           16           20            4           24           16
    25           33           35           35           33           29
    26           34           36           36           34           30
    27           35           25           33           31           27
    28           36           26           34           32           28
    29           25           27           31           29           25
    30           26           28           32           30           26
    31           27           29           29           27           35
    32           28           30           30           28           36
    33           29           31           27           25           33
    34           30           32           28           26           34
    35           31           33           25           35           31
    36           32           34           26           36           32
             16           17           18           19           20
     1            5           21           17            9            5
     2            6           22           18           10            6
     3            7           23           19           11            7
     4            8           24           20           12            8
     5            1           17           13            5            1
     6            2           18           14            6            2
     7            3           19           15            7            3
     8            4           20           16            8            4
     9           21           13            9            1           21
    10           22           14           10            2           22
    11           23           15           11            3           23
    12           24           16           12            4           24
    13           17            9            5           21           17
    14           18           10            6           22           18
    15           19           11            7           23           19
    16           20           12            8           24           20
    17           13            5            1           17           13
    18           14            6            2           18           14
    19           15            7            3           19           15
    20           16            8            4           20           16
    21            9            1           21           13            9
    22           10            2           22           14           10
    23           11            3           23           15           11
    24           12            4           24           16           12
    25           27           35           33           29           27
    26           28           36           34           30           28
    27           25           33           31           27           25
    28           26           34           32           28           26
    29           35           31           29           25           35
    30           36           32           30           26           36
    31           33           29           27           35           33
    32           34           30           28           36           34
    33           31           27           25           33           31
    34           32           28           26           34           32
    35           29           25           35           31           29
    36           30           26           36           32           30
             21           22           23           24
     1            5            9           17           21
     2            6           10           18           22
     3            7           11           19           23
     4            8           12           20           24
     5            9           13           21            1
     6           10           14           22            2
     7           11           15           23            3
     8           12           16           24            4
     9           13           17            1            5
    10           14           18            2            6
    11           15           19            3            7
    12           16           20            4            8
    13           17           21            5            9
    14           18           22            6           10
    15           19           23            7           11
    16           20           24            8           12
    17           21            1            9           13
    18           22            2           10           14
    19           23            3           11           15
    20           24            4           12           16
    21            1            5           13           17
    22            2            6           14           18
    23            3            7           15           19
    24            4            8           16           20
    25           27           29           33           35
    26           28           30           34           36
    27           29           31           35           25
    28           30           32           36           26
    29           31           33           25           27
    30           32           34           26           28
    31           33           35           27           29
    32           34           36           28           30
    33           35           25           29           31
    34           36           26           30           32
    35           25           27           31           33
    36           26           28           32           34
 NEqBas: 
              1            2            3            4            5
     1            1           46            1           46            1
     2            2           47            2           47            2
     3            3          -48           -3           48           -3
     4            4          -49            4          -49            4
     5            5           50           -5          -50            5
     6            6           51            6           51            6
     7            7          -52           -7           52           -7
     8            8          -53            8          -53            8
     9            9           54           -9          -54            9
    10           10           55           10           55           10
    11           11           56           11           56           11
    12           12           57           12           57           12
    13           13           58          -13          -58          -13
    14           14          -59           14          -59          -14
    15           15          -60          -15           60           15
    16           16           61           76           31           76
    17           17           62           77           32           77
    18           18          -63          -78           33          -78
    19           19          -64           79          -34           79
    20           20           65          -80          -35           80
    21           21           66           81           36           81
    22           22          -67          -82           37          -82
    23           23          -68           83          -38           83
    24           24           69          -84          -39           84
    25           25           70           85           40           85
    26           26           71           86           41           86
    27           27           72           87           42           87
    28           28           73          -88          -43          -88
    29           29          -74           89          -44          -89
    30           30          -75          -90           45           90
    31           31           76           61           16           61
    32           32           77           62           17           62
    33           33          -78          -63           18          -63
    34           34          -79           64          -19           64
    35           35           80          -65          -20           65
    36           36           81           66           21           66
    37           37          -82          -67           22          -67
    38           38          -83           68          -23           68
    39           39           84          -69          -24           69
    40           40           85           70           25           70
    41           41           86           71           26           71
    42           42           87           72           27           72
    43           43           88          -73          -28          -73
    44           44          -89           74          -29          -74
    45           45          -90          -75           30           75
    46           46            1           46            1           46
    47           47            2           47            2           47
    48           48           -3          -48            3          -48
    49           49           -4           49           -4           49
    50           50            5          -50           -5           50
    51           51            6           51            6           51
    52           52           -7          -52            7          -52
    53           53           -8           53           -8           53
    54           54            9          -54           -9           54
    55           55           10           55           10           55
    56           56           11           56           11           56
    57           57           12           57           12           57
    58           58           13          -58          -13          -58
    59           59          -14           59          -14          -59
    60           60          -15          -60           15           60
    61           61           16           31           76           31
    62           62           17           32           77           32
    63           63          -18          -33           78          -33
    64           64          -19           34          -79           34
    65           65           20          -35          -80           35
    66           66           21           36           81           36
    67           67          -22          -37           82          -37
    68           68          -23           38          -83           38
    69           69           24          -39          -84           39
    70           70           25           40           85           40
    71           71           26           41           86           41
    72           72           27           42           87           42
    73           73           28          -43          -88          -43
    74           74          -29           44          -89          -44
    75           75          -30          -45           90           45
    76           76           31           16           61           16
    77           77           32           17           62           17
    78           78          -33          -18           63          -18
    79           79          -34           19          -64           19
    80           80           35          -20          -65           20
    81           81           36           21           66           21
    82           82          -37          -22           67          -22
    83           83          -38           23          -68           23
    84           84           39          -24          -69           24
    85           85           40           25           70           25
    86           86           41           26           71           26
    87           87           42           27           72           27
    88           88           43          -28          -73          -28
    89           89          -44           29          -74          -29
    90           90          -45          -30           75           30
    91           91           97           91           97           91
    92           92           98           92           98           92
    93           93           99          101           95          101
    94           94          100          102           96          102
    95           95          101           99           93           99
    96           96          102          100           94          100
    97           97           91           97           91           97
    98           98           92           98           92           98
    99           99           93           95          101           95
   100          100           94           96          102           96
   101          101           95           93           99           93
   102          102           96           94          100           94
              6            7            8
     1           46            1           46
     2           47            2           47
     3           48            3          -48
     4          -49            4          -49
     5           50           -5          -50
     6           51            6           51
     7           52            7          -52
     8          -53            8          -53
     9           54           -9          -54
    10           55           10           55
    11           56           11           56
    12           57           12           57
    13          -58           13           58
    14           59          -14           59
    15          -60          -15           60
    16           31           16           61
    17           32           17           62
    18           33           18          -63
    19          -34           19          -64
    20           35          -20          -65
    21           36           21           66
    22           37           22          -67
    23          -38           23          -68
    24           39          -24          -69
    25           40           25           70
    26           41           26           71
    27           42           27           72
    28          -43           28           73
    29           44          -29           74
    30          -45          -30           75
    31           16           31           76
    32           17           32           77
    33           18           33          -78
    34          -19           34          -79
    35           20          -35          -80
    36           21           36           81
    37           22           37          -82
    38          -23           38          -83
    39           24          -39          -84
    40           25           40           85
    41           26           41           86
    42           27           42           87
    43          -28           43           88
    44           29          -44           89
    45          -30          -45           90
    46            1           46            1
    47            2           47            2
    48            3           48           -3
    49           -4           49           -4
    50            5          -50           -5
    51            6           51            6
    52            7           52           -7
    53           -8           53           -8
    54            9          -54           -9
    55           10           55           10
    56           11           56           11
    57           12           57           12
    58          -13           58           13
    59           14          -59           14
    60          -15          -60           15
    61           76           61           16
    62           77           62           17
    63           78           63          -18
    64          -79           64          -19
    65           80          -65          -20
    66           81           66           21
    67           82           67          -22
    68          -83           68          -23
    69           84          -69          -24
    70           85           70           25
    71           86           71           26
    72           87           72           27
    73          -88           73           28
    74           89          -74           29
    75          -90          -75           30
    76           61           76           31
    77           62           77           32
    78           63           78          -33
    79          -64           79          -34
    80           65          -80          -35
    81           66           81           36
    82           67           82          -37
    83          -68           83          -38
    84           69          -84          -39
    85           70           85           40
    86           71           86           41
    87           72           87           42
    88          -73           88           43
    89           74          -89           44
    90          -75          -90           45
    91           97           91           97
    92           98           92           98
    93           95           93           99
    94           96           94          100
    95           93           95          101
    96           94           96          102
    97           91           97           91
    98           92           98           92
    99          101           99           93
   100          102          100           94
   101           99          101           95
   102          100          102           96
 There are    23 symmetry adapted cartesian basis functions of AG  symmetry.
   1         1  46   1  46  46   1  46   1
   2         2  47   2  47  47   2  47   2
   3         4 -49   4 -49 -49   4 -49   4
   4         6  51   6  51  51   6  51   6
   5         8 -53   8 -53 -53   8 -53   8
   6        10  55  10  55  55  10  55  10
   7        11  56  11  56  56  11  56  11
   8        12  57  12  57  57  12  57  12
   9        16  61  76  31  61  16  31  76
  10        17  62  77  32  62  17  32  77
  11        18 -63 -78  33 -63  18  33 -78
  12        19 -64  79 -34 -64  19 -34  79
  13        21  66  81  36  66  21  36  81
  14        22 -67 -82  37 -67  22  37 -82
  15        23 -68  83 -38 -68  23 -38  83
  16        25  70  85  40  70  25  40  85
  17        26  71  86  41  71  26  41  86
  18        27  72  87  42  72  27  42  87
  19        28  73 -88 -43  73  28 -43 -88
  20        91  97  91  97  97  91  97  91
  21        92  98  92  98  98  92  98  92
  22        93  99 101  95  99  93  95 101
  23        94 100 102  96 100  94  96 102
 There are    16 symmetry adapted cartesian basis functions of B1G symmetry.
  24         3 -48   3 -48 -48   3 -48   3
  25         7 -52   7 -52 -52   7 -52   7
  26        13  58  13  58  58  13  58  13
  27        16  61 -76 -31  61  16 -31 -76
  28        17  62 -77 -32  62  17 -32 -77
  29        18 -63  78 -33 -63  18 -33  78
  30        19 -64 -79  34 -64  19  34 -79
  31        21  66 -81 -36  66  21 -36 -81
  32        22 -67  82 -37 -67  22 -37  82
  33        23 -68 -83  38 -68  23  38 -83
  34        25  70 -85 -40  70  25 -40 -85
  35        26  71 -86 -41  71  26 -41 -86
  36        27  72 -87 -42  72  27 -42 -87
  37        28  73  88  43  73  28  43  88
  38        93  99-101 -95  99  93 -95-101
  39        94 100-102 -96 100  94 -96-102
 There are     5 symmetry adapted cartesian basis functions of B2G symmetry.
  40        14  59  14  59  59  14  59  14
  41        20 -65 -80  35 -65  20  35 -80
  42        24 -69 -84  39 -69  24  39 -84
  43        29  74  89  44  74  29  44  89
  44        30  75 -90 -45  75  30 -45 -90
 There are     7 symmetry adapted cartesian basis functions of B3G symmetry.
  45         5 -50   5 -50 -50   5 -50   5
  46         9 -54   9 -54 -54   9 -54   9
  47        15  60  15  60  60  15  60  15
  48        20 -65  80 -35 -65  20 -35  80
  49        24 -69  84 -39 -69  24 -39  84
  50        29  74 -89 -44  74  29 -44 -89
  51        30  75  90  45  75  30  45  90
 There are     5 symmetry adapted cartesian basis functions of AU  symmetry.
  52        14 -59  14 -59 -59  14 -59  14
  53        20  65 -80 -35  65  20 -35 -80
  54        24  69 -84 -39  69  24 -39 -84
  55        29 -74  89 -44 -74  29 -44  89
  56        30 -75 -90  45 -75  30  45 -90
 There are     7 symmetry adapted cartesian basis functions of B1U symmetry.
  57         5  50   5  50  50   5  50   5
  58         9  54   9  54  54   9  54   9
  59        15 -60  15 -60 -60  15 -60  15
  60        20  65  80  35  65  20  35  80
  61        24  69  84  39  69  24  39  84
  62        29 -74 -89  44 -74  29  44 -89
  63        30 -75  90 -45 -75  30 -45  90
 There are    23 symmetry adapted cartesian basis functions of B2U symmetry.
  64         1 -46   1 -46 -46   1 -46   1
  65         2 -47   2 -47 -47   2 -47   2
  66         4  49   4  49  49   4  49   4
  67         6 -51   6 -51 -51   6 -51   6
  68         8  53   8  53  53   8  53   8
  69        10 -55  10 -55 -55  10 -55  10
  70        11 -56  11 -56 -56  11 -56  11
  71        12 -57  12 -57 -57  12 -57  12
  72        16 -61  76 -31 -61  16 -31  76
  73        17 -62  77 -32 -62  17 -32  77
  74        18  63 -78 -33  63  18 -33 -78
  75        19  64  79  34  64  19  34  79
  76        21 -66  81 -36 -66  21 -36  81
  77        22  67 -82 -37  67  22 -37 -82
  78        23  68  83  38  68  23  38  83
  79        25 -70  85 -40 -70  25 -40  85
  80        26 -71  86 -41 -71  26 -41  86
  81        27 -72  87 -42 -72  27 -42  87
  82        28 -73 -88  43 -73  28  43 -88
  83        91 -97  91 -97 -97  91 -97  91
  84        92 -98  92 -98 -98  92 -98  92
  85        93 -99 101 -95 -99  93 -95 101
  86        94-100 102 -96-100  94 -96 102
 There are    16 symmetry adapted cartesian basis functions of B3U symmetry.
  87         3  48   3  48  48   3  48   3
  88         7  52   7  52  52   7  52   7
  89        13 -58  13 -58 -58  13 -58  13
  90        16 -61 -76  31 -61  16  31 -76
  91        17 -62 -77  32 -62  17  32 -77
  92        18  63  78  33  63  18  33  78
  93        19  64 -79 -34  64  19 -34 -79
  94        21 -66 -81  36 -66  21  36 -81
  95        22  67  82  37  67  22  37  82
  96        23  68 -83 -38  68  23 -38 -83
  97        25 -70 -85  40 -70  25  40 -85
  98        26 -71 -86  41 -71  26  41 -86
  99        27 -72 -87  42 -72  27  42 -87
 100        28 -73  88 -43 -73  28 -43  88
 101        93 -99-101  95 -99  93  95-101
 102        94-100-102  96-100  94  96-102
 Order= 1 2 3 4 8 7 6 5
 Reordered character table:
              1            2            3            4            5
     1            1            1            1            1            1
     2            2            1            1           -1           -1
     3            3            1           -1            1           -1
     4            4            1           -1           -1            1
     5            8            1           -1           -1            1
     6            7            1           -1            1           -1
     7            6            1            1           -1           -1
     8            5            1            1            1            1
              6            7            8            9
     1            1            1            1            1
     2            1            1           -1           -1
     3            1           -1            1           -1
     4            1           -1           -1            1
     5           -1            1            1           -1
     6           -1            1           -1            1
     7           -1           -1            1            1
     8           -1           -1           -1           -1
 NEqShl: 
              1            2            3            4            5
     1            1           13            1           13            1
     2            2           14            2           14            2
     3            3           15            3           15            3
     4            4           16            4           16            4
     5            5           17           21            9           21
     6            6           18           22           10           22
     7            7           19           23           11           23
     8            8           20           24           12           24
     9            9           21           17            5           17
    10           10           22           18            6           18
    11           11           23           19            7           19
    12           12           24           20            8           20
    13           13            1           13            1           13
    14           14            2           14            2           14
    15           15            3           15            3           15
    16           16            4           16            4           16
    17           17            5            9           21            9
    18           18            6           10           22           10
    19           19            7           11           23           11
    20           20            8           12           24           12
    21           21            9            5           17            5
    22           22           10            6           18            6
    23           23           11            7           19            7
    24           24           12            8           20            8
    25           25           31           25           31           25
    26           26           32           26           32           26
    27           27           33           35           29           35
    28           28           34           36           30           36
    29           29           35           33           27           33
    30           30           36           34           28           34
    31           31           25           31           25           31
    32           32           26           32           26           32
    33           33           27           29           35           29
    34           34           28           30           36           30
    35           35           29           27           33           27
    36           36           30           28           34           28
              6            7            8            9           10
     1           13            1           13            5            9
     2           14            2           14            6           10
     3           15            3           15            7           11
     4           16            4           16            8           12
     5            9            5           17            9           13
     6           10            6           18           10           14
     7           11            7           19           11           15
     8           12            8           20           12           16
     9            5            9           21           13           17
    10            6           10           22           14           18
    11            7           11           23           15           19
    12            8           12           24           16           20
    13            1           13            1           17           21
    14            2           14            2           18           22
    15            3           15            3           19           23
    16            4           16            4           20           24
    17           21           17            5           21            1
    18           22           18            6           22            2
    19           23           19            7           23            3
    20           24           20            8           24            4
    21           17           21            9            1            5
    22           18           22           10            2            6
    23           19           23           11            3            7
    24           20           24           12            4            8
    25           31           25           31           27           29
    26           32           26           32           28           30
    27           29           27           33           29           31
    28           30           28           34           30           32
    29           27           29           35           31           33
    30           28           30           36           32           34
    31           25           31           25           33           35
    32           26           32           26           34           36
    33           35           33           27           35           25
    34           36           34           28           36           26
    35           33           35           29           25           27
    36           34           36           30           26           28
             11           12           13           14           15
     1           17           21           21           17            9
     2           18           22           22           18           10
     3           19           23           23           19           11
     4           20           24           24           20           12
     5           21            1           17           13            5
     6           22            2           18           14            6
     7           23            3           19           15            7
     8           24            4           20           16            8
     9            1            5           13            9            1
    10            2            6           14           10            2
    11            3            7           15           11            3
    12            4            8           16           12            4
    13            5            9            9            5           21
    14            6           10           10            6           22
    15            7           11           11            7           23
    16            8           12           12            8           24
    17            9           13            5            1           17
    18           10           14            6            2           18
    19           11           15            7            3           19
    20           12           16            8            4           20
    21           13           17            1           21           13
    22           14           18            2           22           14
    23           15           19            3           23           15
    24           16           20            4           24           16
    25           33           35           35           33           29
    26           34           36           36           34           30
    27           35           25           33           31           27
    28           36           26           34           32           28
    29           25           27           31           29           25
    30           26           28           32           30           26
    31           27           29           29           27           35
    32           28           30           30           28           36
    33           29           31           27           25           33
    34           30           32           28           26           34
    35           31           33           25           35           31
    36           32           34           26           36           32
             16           17           18           19           20
     1            5           21           17            9            5
     2            6           22           18           10            6
     3            7           23           19           11            7
     4            8           24           20           12            8
     5            1           17           13            5            1
     6            2           18           14            6            2
     7            3           19           15            7            3
     8            4           20           16            8            4
     9           21           13            9            1           21
    10           22           14           10            2           22
    11           23           15           11            3           23
    12           24           16           12            4           24
    13           17            9            5           21           17
    14           18           10            6           22           18
    15           19           11            7           23           19
    16           20           12            8           24           20
    17           13            5            1           17           13
    18           14            6            2           18           14
    19           15            7            3           19           15
    20           16            8            4           20           16
    21            9            1           21           13            9
    22           10            2           22           14           10
    23           11            3           23           15           11
    24           12            4           24           16           12
    25           27           35           33           29           27
    26           28           36           34           30           28
    27           25           33           31           27           25
    28           26           34           32           28           26
    29           35           31           29           25           35
    30           36           32           30           26           36
    31           33           29           27           35           33
    32           34           30           28           36           34
    33           31           27           25           33           31
    34           32           28           26           34           32
    35           29           25           35           31           29
    36           30           26           36           32           30
             21           22           23           24
     1            5            9           17           21
     2            6           10           18           22
     3            7           11           19           23
     4            8           12           20           24
     5            9           13           21            1
     6           10           14           22            2
     7           11           15           23            3
     8           12           16           24            4
     9           13           17            1            5
    10           14           18            2            6
    11           15           19            3            7
    12           16           20            4            8
    13           17           21            5            9
    14           18           22            6           10
    15           19           23            7           11
    16           20           24            8           12
    17           21            1            9           13
    18           22            2           10           14
    19           23            3           11           15
    20           24            4           12           16
    21            1            5           13           17
    22            2            6           14           18
    23            3            7           15           19
    24            4            8           16           20
    25           27           29           33           35
    26           28           30           34           36
    27           29           31           35           25
    28           30           32           36           26
    29           31           33           25           27
    30           32           34           26           28
    31           33           35           27           29
    32           34           36           28           30
    33           35           25           29           31
    34           36           26           30           32
    35           25           27           31           33
    36           26           28           32           34
 NEqBas: 
              1            2            3            4            5
     1            1           46            1           46            1
     2            2           47            2           47            2
     3            3          -48           -3           48           -3
     4            4          -49            4          -49            4
     5            5           50           -5          -50            5
     6            6           51            6           51            6
     7            7          -52           -7           52           -7
     8            8          -53            8          -53            8
     9            9           54           -9          -54            9
    10           10           55           10           55           10
    11           11           56           11           56           11
    12           12           57           12           57           12
    13           13           58          -13          -58          -13
    14           14          -59           14          -59          -14
    15           15          -60          -15           60           15
    16           16           61           76           31           76
    17           17           62           77           32           77
    18           18          -63          -78           33          -78
    19           19          -64           79          -34           79
    20           20           65          -80          -35           80
    21           21           66           81           36           81
    22           22          -67          -82           37          -82
    23           23          -68           83          -38           83
    24           24           69          -84          -39           84
    25           25           70           85           40           85
    26           26           71           86           41           86
    27           27           72           87           42           87
    28           28           73          -88          -43          -88
    29           29          -74           89          -44          -89
    30           30          -75          -90           45           90
    31           31           76           61           16           61
    32           32           77           62           17           62
    33           33          -78          -63           18          -63
    34           34          -79           64          -19           64
    35           35           80          -65          -20           65
    36           36           81           66           21           66
    37           37          -82          -67           22          -67
    38           38          -83           68          -23           68
    39           39           84          -69          -24           69
    40           40           85           70           25           70
    41           41           86           71           26           71
    42           42           87           72           27           72
    43           43           88          -73          -28          -73
    44           44          -89           74          -29          -74
    45           45          -90          -75           30           75
    46           46            1           46            1           46
    47           47            2           47            2           47
    48           48           -3          -48            3          -48
    49           49           -4           49           -4           49
    50           50            5          -50           -5           50
    51           51            6           51            6           51
    52           52           -7          -52            7          -52
    53           53           -8           53           -8           53
    54           54            9          -54           -9           54
    55           55           10           55           10           55
    56           56           11           56           11           56
    57           57           12           57           12           57
    58           58           13          -58          -13          -58
    59           59          -14           59          -14          -59
    60           60          -15          -60           15           60
    61           61           16           31           76           31
    62           62           17           32           77           32
    63           63          -18          -33           78          -33
    64           64          -19           34          -79           34
    65           65           20          -35          -80           35
    66           66           21           36           81           36
    67           67          -22          -37           82          -37
    68           68          -23           38          -83           38
    69           69           24          -39          -84           39
    70           70           25           40           85           40
    71           71           26           41           86           41
    72           72           27           42           87           42
    73           73           28          -43          -88          -43
    74           74          -29           44          -89          -44
    75           75          -30          -45           90           45
    76           76           31           16           61           16
    77           77           32           17           62           17
    78           78          -33          -18           63          -18
    79           79          -34           19          -64           19
    80           80           35          -20          -65           20
    81           81           36           21           66           21
    82           82          -37          -22           67          -22
    83           83          -38           23          -68           23
    84           84           39          -24          -69           24
    85           85           40           25           70           25
    86           86           41           26           71           26
    87           87           42           27           72           27
    88           88           43          -28          -73          -28
    89           89          -44           29          -74          -29
    90           90          -45          -30           75           30
    91           91           97           91           97           91
    92           92           98           92           98           92
    93           93           99          101           95          101
    94           94          100          102           96          102
    95           95          101           99           93           99
    96           96          102          100           94          100
    97           97           91           97           91           97
    98           98           92           98           92           98
    99           99           93           95          101           95
   100          100           94           96          102           96
   101          101           95           93           99           93
   102          102           96           94          100           94
              6            7            8
     1           46            1           46
     2           47            2           47
     3           48            3          -48
     4          -49            4          -49
     5           50           -5          -50
     6           51            6           51
     7           52            7          -52
     8          -53            8          -53
     9           54           -9          -54
    10           55           10           55
    11           56           11           56
    12           57           12           57
    13          -58           13           58
    14           59          -14           59
    15          -60          -15           60
    16           31           16           61
    17           32           17           62
    18           33           18          -63
    19          -34           19          -64
    20           35          -20          -65
    21           36           21           66
    22           37           22          -67
    23          -38           23          -68
    24           39          -24          -69
    25           40           25           70
    26           41           26           71
    27           42           27           72
    28          -43           28           73
    29           44          -29           74
    30          -45          -30           75
    31           16           31           76
    32           17           32           77
    33           18           33          -78
    34          -19           34          -79
    35           20          -35          -80
    36           21           36           81
    37           22           37          -82
    38          -23           38          -83
    39           24          -39          -84
    40           25           40           85
    41           26           41           86
    42           27           42           87
    43          -28           43           88
    44           29          -44           89
    45          -30          -45           90
    46            1           46            1
    47            2           47            2
    48            3           48           -3
    49           -4           49           -4
    50            5          -50           -5
    51            6           51            6
    52            7           52           -7
    53           -8           53           -8
    54            9          -54           -9
    55           10           55           10
    56           11           56           11
    57           12           57           12
    58          -13           58           13
    59           14          -59           14
    60          -15          -60           15
    61           76           61           16
    62           77           62           17
    63           78           63          -18
    64          -79           64          -19
    65           80          -65          -20
    66           81           66           21
    67           82           67          -22
    68          -83           68          -23
    69           84          -69          -24
    70           85           70           25
    71           86           71           26
    72           87           72           27
    73          -88           73           28
    74           89          -74           29
    75          -90          -75           30
    76           61           76           31
    77           62           77           32
    78           63           78          -33
    79          -64           79          -34
    80           65          -80          -35
    81           66           81           36
    82           67           82          -37
    83          -68           83          -38
    84           69          -84          -39
    85           70           85           40
    86           71           86           41
    87           72           87           42
    88          -73           88           43
    89           74          -89           44
    90          -75          -90           45
    91           97           91           97
    92           98           92           98
    93           95           93           99
    94           96           94          100
    95           93           95          101
    96           94           96          102
    97           91           97           91
    98           92           98           92
    99          101           99           93
   100          102          100           94
   101           99          101           95
   102          100          102           96
 There are    23 symmetry adapted basis functions of AG  symmetry.
   1         1  46   1  46  46   1  46   1
   2         2  47   2  47  47   2  47   2
   3         4 -49   4 -49 -49   4 -49   4
   4         6  51   6  51  51   6  51   6
   5         8 -53   8 -53 -53   8 -53   8
   6        10  55  10  55  55  10  55  10
   7        11  56  11  56  56  11  56  11
   8        12  57  12  57  57  12  57  12
   9        16  61  76  31  61  16  31  76
  10        17  62  77  32  62  17  32  77
  11        18 -63 -78  33 -63  18  33 -78
  12        19 -64  79 -34 -64  19 -34  79
  13        21  66  81  36  66  21  36  81
  14        22 -67 -82  37 -67  22  37 -82
  15        23 -68  83 -38 -68  23 -38  83
  16        25  70  85  40  70  25  40  85
  17        26  71  86  41  71  26  41  86
  18        27  72  87  42  72  27  42  87
  19        28  73 -88 -43  73  28 -43 -88
  20        91  97  91  97  97  91  97  91
  21        92  98  92  98  98  92  98  92
  22        93  99 101  95  99  93  95 101
  23        94 100 102  96 100  94  96 102
 There are    16 symmetry adapted basis functions of B1G symmetry.
  24         3 -48   3 -48 -48   3 -48   3
  25         7 -52   7 -52 -52   7 -52   7
  26        13  58  13  58  58  13  58  13
  27        16  61 -76 -31  61  16 -31 -76
  28        17  62 -77 -32  62  17 -32 -77
  29        18 -63  78 -33 -63  18 -33  78
  30        19 -64 -79  34 -64  19  34 -79
  31        21  66 -81 -36  66  21 -36 -81
  32        22 -67  82 -37 -67  22 -37  82
  33        23 -68 -83  38 -68  23  38 -83
  34        25  70 -85 -40  70  25 -40 -85
  35        26  71 -86 -41  71  26 -41 -86
  36        27  72 -87 -42  72  27 -42 -87
  37        28  73  88  43  73  28  43  88
  38        93  99-101 -95  99  93 -95-101
  39        94 100-102 -96 100  94 -96-102
 There are     5 symmetry adapted basis functions of B2G symmetry.
  40        14  59  14  59  59  14  59  14
  41        20 -65 -80  35 -65  20  35 -80
  42        24 -69 -84  39 -69  24  39 -84
  43        29  74  89  44  74  29  44  89
  44        30  75 -90 -45  75  30 -45 -90
 There are     7 symmetry adapted basis functions of B3G symmetry.
  45         5 -50   5 -50 -50   5 -50   5
  46         9 -54   9 -54 -54   9 -54   9
  47        15  60  15  60  60  15  60  15
  48        20 -65  80 -35 -65  20 -35  80
  49        24 -69  84 -39 -69  24 -39  84
  50        29  74 -89 -44  74  29 -44 -89
  51        30  75  90  45  75  30  45  90
 There are     5 symmetry adapted basis functions of AU  symmetry.
  52        14 -59  14 -59 -59  14 -59  14
  53        20  65 -80 -35  65  20 -35 -80
  54        24  69 -84 -39  69  24 -39 -84
  55        29 -74  89 -44 -74  29 -44  89
  56        30 -75 -90  45 -75  30  45 -90
 There are     7 symmetry adapted basis functions of B1U symmetry.
  57         5  50   5  50  50   5  50   5
  58         9  54   9  54  54   9  54   9
  59        15 -60  15 -60 -60  15 -60  15
  60        20  65  80  35  65  20  35  80
  61        24  69  84  39  69  24  39  84
  62        29 -74 -89  44 -74  29  44 -89
  63        30 -75  90 -45 -75  30 -45  90
 There are    23 symmetry adapted basis functions of B2U symmetry.
  64         1 -46   1 -46 -46   1 -46   1
  65         2 -47   2 -47 -47   2 -47   2
  66         4  49   4  49  49   4  49   4
  67         6 -51   6 -51 -51   6 -51   6
  68         8  53   8  53  53   8  53   8
  69        10 -55  10 -55 -55  10 -55  10
  70        11 -56  11 -56 -56  11 -56  11
  71        12 -57  12 -57 -57  12 -57  12
  72        16 -61  76 -31 -61  16 -31  76
  73        17 -62  77 -32 -62  17 -32  77
  74        18  63 -78 -33  63  18 -33 -78
  75        19  64  79  34  64  19  34  79
  76        21 -66  81 -36 -66  21 -36  81
  77        22  67 -82 -37  67  22 -37 -82
  78        23  68  83  38  68  23  38  83
  79        25 -70  85 -40 -70  25 -40  85
  80        26 -71  86 -41 -71  26 -41  86
  81        27 -72  87 -42 -72  27 -42  87
  82        28 -73 -88  43 -73  28  43 -88
  83        91 -97  91 -97 -97  91 -97  91
  84        92 -98  92 -98 -98  92 -98  92
  85        93 -99 101 -95 -99  93 -95 101
  86        94-100 102 -96-100  94 -96 102
 There are    16 symmetry adapted basis functions of B3U symmetry.
  87         3  48   3  48  48   3  48   3
  88         7  52   7  52  52   7  52   7
  89        13 -58  13 -58 -58  13 -58  13
  90        16 -61 -76  31 -61  16  31 -76
  91        17 -62 -77  32 -62  17  32 -77
  92        18  63  78  33  63  18  33  78
  93        19  64 -79 -34  64  19 -34 -79
  94        21 -66 -81  36 -66  21  36 -81
  95        22  67  82  37  67  22  37  82
  96        23  68 -83 -38  68  23 -38 -83
  97        25 -70 -85  40 -70  25  40 -85
  98        26 -71 -86  41 -71  26  41 -86
  99        27 -72 -87  42 -72  27  42 -87
 100        28 -73  88 -43 -73  28 -43  88
 101        93 -99-101  95 -99  93  95-101
 102        94-100-102  96-100  94  96-102
 Order= 1 2 3 4 8 7 6 5
 Reordered character table:
              1            2            3            4            5
     1            1            1            1            1            1
[...]
  90        4YZ         0.00000   0.00000   0.00000   0.00000   0.00000
  91 7   H  1S          0.00000  -0.00020  -0.00025  -0.00052   0.00000
  92        2S          0.00023  -0.00312  -0.00312  -0.00773   0.00000
  93 8   H  1S          0.00000   0.00000   0.00000   0.00000   0.00000
  94        2S          0.00000   0.00014   0.00050   0.00003   0.00000
  95 9   H  1S          0.00000   0.00000   0.00000   0.00000   0.00000
  96        2S          0.00000   0.00000   0.00000   0.00000   0.00000
  97 10  H  1S          0.00000   0.00000   0.00000   0.00000   0.00000
  98        2S          0.00000   0.00014   0.00002   0.00051   0.00000
  99 11  H  1S          0.00000  -0.00020  -0.00014  -0.00062   0.00000
 100        2S          0.00023  -0.00312  -0.00231  -0.00854   0.00000
 101 12  H  1S         -0.00221   0.03356   0.07751   0.02584   0.00000
 102        2S         -0.00133   0.01301   0.04834   0.01611   0.00000
                          81        82        83        84        85
  81        3S          0.22848
  82        3PX         0.00000   0.04010
  83        3PY         0.00000   0.00000   0.04507
  84        3PZ         0.00000   0.00000   0.00000   0.15331
  85        4XX         0.00185   0.00000   0.00000   0.00000   0.00135
  86        4YY        -0.00166   0.00000   0.00000   0.00000  -0.00021
  87        4ZZ        -0.00719   0.00000   0.00000   0.00000  -0.00001
  88        4XY         0.00000   0.00000   0.00000   0.00000   0.00000
  89        4XZ         0.00000   0.00000   0.00000   0.00000   0.00000
  90        4YZ         0.00000   0.00000   0.00000   0.00000   0.00000
  91 7   H  1S         -0.00398  -0.00149  -0.00099   0.00000  -0.00003
  92        2S         -0.01308  -0.00484  -0.00651   0.00000  -0.00064
  93 8   H  1S          0.00010   0.00020   0.00004   0.00000   0.00000
  94        2S          0.00130   0.00224   0.00039   0.00000  -0.00002
  95 9   H  1S          0.00001   0.00001   0.00000   0.00000   0.00000
  96        2S          0.00023   0.00024   0.00008   0.00000   0.00000
  97 10  H  1S          0.00010  -0.00004   0.00027   0.00000   0.00000
  98        2S          0.00130  -0.00036   0.00299   0.00000  -0.00001
  99 11  H  1S         -0.00398   0.00012  -0.00260   0.00000   0.00000
 100        2S         -0.01308  -0.00111  -0.01024   0.00000   0.00021
 101 12  H  1S          0.04008   0.03131   0.01044   0.00000   0.00382
 102        2S          0.02344   0.02740   0.00913   0.00000   0.00387
                          86        87        88        89        90
  86        4YY         0.00104
  87        4ZZ         0.00008   0.00092
  88        4XY         0.00000   0.00000   0.00158
  89        4XZ         0.00000   0.00000   0.00000   0.00033
  90        4YZ         0.00000   0.00000   0.00000   0.00000   0.00058
  91 7   H  1S          0.00009   0.00000   0.00006   0.00000   0.00000
  92        2S          0.00091   0.00009   0.00012   0.00000   0.00000
  93 8   H  1S          0.00000   0.00000   0.00000   0.00000   0.00000
  94        2S          0.00000   0.00000   0.00000   0.00000   0.00000
  95 9   H  1S          0.00000   0.00000   0.00000   0.00000   0.00000
  96        2S          0.00000   0.00000   0.00000   0.00000   0.00000
  97 10  H  1S          0.00000   0.00000   0.00000   0.00000   0.00000
  98        2S          0.00000   0.00000  -0.00001   0.00000   0.00000
  99 11  H  1S          0.00003   0.00000   0.00008   0.00000   0.00000
 100        2S         -0.00018   0.00009   0.00037   0.00000   0.00000
 101 12  H  1S         -0.00086  -0.00080   0.00365   0.00000   0.00000
 102        2S         -0.00137  -0.00086   0.00077   0.00000   0.00000
                          91        92        93        94        95
  91 7   H  1S          0.21953
  92        2S          0.11337   0.15633
  93 8   H  1S         -0.00001  -0.00087   0.21953
  94        2S         -0.00087  -0.00423   0.11337   0.15633
  95 9   H  1S          0.00000   0.00000  -0.00001  -0.00087   0.21953
  96        2S          0.00000  -0.00018  -0.00087  -0.00423   0.11337
  97 10  H  1S          0.00000   0.00000   0.00000   0.00000  -0.00001
  98        2S          0.00000   0.00002   0.00000  -0.00018  -0.00087
  99 11  H  1S          0.00000   0.00000   0.00000   0.00000   0.00000
 100        2S          0.00000  -0.00018   0.00000   0.00002   0.00000
 101 12  H  1S         -0.00001  -0.00087   0.00000   0.00000   0.00000
 102        2S         -0.00087  -0.00423   0.00000  -0.00018   0.00000
                          96        97        98        99       100
  96        2S          0.15633
  97 10  H  1S         -0.00087   0.21953
  98        2S         -0.00423   0.11337   0.15633
  99 11  H  1S          0.00000  -0.00001  -0.00087   0.21953
 100        2S         -0.00018  -0.00087  -0.00423   0.11337   0.15633
 101 12  H  1S          0.00000   0.00000   0.00000  -0.00001  -0.00087
 102        2S          0.00002   0.00000  -0.00018  -0.00087  -0.00423
                         101       102
 101 12  H  1S          0.21953
 102        2S          0.11337   0.15633
     Gross orbital populations:
                           1
   1 1   C  1S          1.99188
   2        2S          0.71175
   3        2PX         0.75876
   4        2PY         0.75615
   5        2PZ         0.56191
   6        3S          0.51299
   7        3PX         0.17485
   8        3PY         0.22079
   9        3PZ         0.43023
  10        4XX         0.00031
  11        4YY         0.01511
  12        4ZZ        -0.02442
  13        4XY         0.01030
  14        4XZ         0.00604
  15        4YZ         0.00182
  16 2   C  1S          1.99188
  17        2S          0.71175
  18        2PX         0.75680
  19        2PY         0.75811
  20        2PZ         0.56191
  21        3S          0.51299
  22        3PX         0.20930
  23        3PY         0.18634
  24        3PZ         0.43023
  25        4XX         0.00968
  26        4YY         0.00228
  27        4ZZ        -0.02442
  28        4XY         0.01375
  29        4XZ         0.00287
  30        4YZ         0.00498
  31 3   C  1S          1.99188
  32        2S          0.71175
  33        2PX         0.75680
  34        2PY         0.75811
  35        2PZ         0.56191
  36        3S          0.51299
  37        3PX         0.20930
  38        3PY         0.18634
  39        3PZ         0.43023
  40        4XX         0.00968
  41        4YY         0.00228
  42        4ZZ        -0.02442
  43        4XY         0.01375
  44        4XZ         0.00287
  45        4YZ         0.00498
  46 4   C  1S          1.99188
  47        2S          0.71175
  48        2PX         0.75876
  49        2PY         0.75615
  50        2PZ         0.56191
  51        3S          0.51299
  52        3PX         0.17485
  53        3PY         0.22079
  54        3PZ         0.43023
  55        4XX         0.00031
  56        4YY         0.01511
  57        4ZZ        -0.02442
  58        4XY         0.01030
  59        4XZ         0.00604
  60        4YZ         0.00182
  61 5   C  1S          1.99188
  62        2S          0.71175
  63        2PX         0.75680
  64        2PY         0.75811
  65        2PZ         0.56191
  66        3S          0.51299
  67        3PX         0.20930
  68        3PY         0.18634
  69        3PZ         0.43023
  70        4XX         0.00968
  71        4YY         0.00228
  72        4ZZ        -0.02442
  73        4XY         0.01375
  74        4XZ         0.00287
  75        4YZ         0.00498
  76 6   C  1S          1.99188
  77        2S          0.71175
  78        2PX         0.75680
  79        2PY         0.75811
  80        2PZ         0.56191
  81        3S          0.51299
  82        3PX         0.20930
  83        3PY         0.18634
  84        3PZ         0.43023
  85        4XX         0.00968
  86        4YY         0.00228
  87        4ZZ        -0.02442
  88        4XY         0.01375
  89        4XZ         0.00287
  90        4YZ         0.00498
  91 7   H  1S          0.53953
  92        2S          0.33201
  93 8   H  1S          0.53953
  94        2S          0.33201
  95 9   H  1S          0.53953
  96        2S          0.33201
  97 10  H  1S          0.53953
  98        2S          0.33201
  99 11  H  1S          0.53953
 100        2S          0.33201
 101 12  H  1S          0.53953
 102        2S          0.33201
          Condensed to atoms (all electrons):
               1          2          3          4          5          6
     1  C    4.850841   0.549075  -0.030575  -0.040642  -0.030575   0.549075
     2  C    0.549075   4.850841   0.549075  -0.030575  -0.040642  -0.030575
     3  C   -0.030575   0.549075   4.850841   0.549075  -0.030575  -0.040642
     4  C   -0.040642  -0.030575   0.549075   4.850841   0.549075  -0.030575
     5  C   -0.030575  -0.040642  -0.030575   0.549075   4.850841   0.549075
     6  C    0.549075  -0.030575  -0.040642  -0.030575   0.549075   4.850841
     7  H    0.360851  -0.044998   0.004915   0.000576   0.004915  -0.044998
     8  H   -0.044998   0.360851  -0.044998   0.004915   0.000576   0.004915
     9  H    0.004915  -0.044998   0.360851  -0.044998   0.004915   0.000576
    10  H    0.000576   0.004915  -0.044998   0.360851  -0.044998   0.004915
    11  H    0.004915   0.000576   0.004915  -0.044998   0.360851  -0.044998
    12  H   -0.044998   0.004915   0.000576   0.004915  -0.044998   0.360851
               7          8          9         10         11         12
     1  C    0.360851  -0.044998   0.004915   0.000576   0.004915  -0.044998
     2  C   -0.044998   0.360851  -0.044998   0.004915   0.000576   0.004915
     3  C    0.004915  -0.044998   0.360851  -0.044998   0.004915   0.000576
     4  C    0.000576   0.004915  -0.044998   0.360851  -0.044998   0.004915
     5  C    0.004915   0.000576   0.004915  -0.044998   0.360851  -0.044998
     6  C   -0.044998   0.004915   0.000576   0.004915  -0.044998   0.360851
     7  H    0.602598  -0.005978  -0.000190   0.000016  -0.000190  -0.005978
     8  H   -0.005978   0.602598  -0.005978  -0.000190   0.000016  -0.000190
     9  H   -0.000190  -0.005978   0.602598  -0.005978  -0.000190   0.000016
    10  H    0.000016  -0.000190  -0.005978   0.602598  -0.005978  -0.000190
    11  H   -0.000190   0.000016  -0.000190  -0.005978   0.602598  -0.005978
    12  H   -0.005978  -0.000190   0.000016  -0.000190  -0.005978   0.602598
 Mulliken charges:
               1
     1  C   -0.128460
     2  C   -0.128460
     3  C   -0.128460
     4  C   -0.128460
     5  C   -0.128460
     6  C   -0.128460
     7  H    0.128460
     8  H    0.128460
     9  H    0.128460
    10  H    0.128460
    11  H    0.128460
    12  H    0.128460
 Sum of Mulliken charges =   0.00000
 Mulliken charges with hydrogens summed into heavy atoms:
               1
     1  C    0.000000
     2  C    0.000000
     3  C    0.000000
     4  C    0.000000
     5  C    0.000000
     6  C    0.000000
 Electronic spatial extent (au):  <R**2>=            458.5598
 Charge=              0.0000 electrons
 Dipole moment (field-independent basis, Debye):
    X=              0.0000    Y=              0.0000    Z=              0.0000  Tot=              0.0000
 Quadrupole moment (field-independent basis, Debye-Ang):
   XX=            -31.3048   YY=            -31.3048   ZZ=            -38.5542
   XY=              0.0000   XZ=              0.0000   YZ=              0.0000
 Traceless Quadrupole moment (field-independent basis, Debye-Ang):
   XX=              2.4165   YY=              2.4165   ZZ=             -4.8329
   XY=              0.0000   XZ=              0.0000   YZ=              0.0000
 Octapole moment (field-independent basis, Debye-Ang**2):
  XXX=              0.0000  YYY=              0.0000  ZZZ=              0.0000  XYY=              0.0000
  XXY=              0.0000  XXZ=              0.0000  XZZ=              0.0000  YZZ=              0.0000
  YYZ=              0.0000  XYZ=              0.0000
 Hexadecapole moment (field-independent basis, Debye-Ang**3):
 XXXX=           -269.5391 YYYY=           -269.5391 ZZZZ=            -40.0318 XXXY=              0.0000
 XXXZ=              0.0000 YYYX=              0.0000 YYYZ=              0.0000 ZZZX=              0.0000
 ZZZY=              0.0000 XXYY=            -89.8464 XXZZ=            -60.1565 YYZZ=            -60.1565
 XXYZ=              0.0000 YYXZ=              0.0000 ZZXY=              0.0000
 N-N= 2.030814685766D+02 E-N=-9.435578283278D+02  KE= 2.299982416679D+02
 Symmetry AG   KE= 7.409687381039D+01
 Symmetry B1G  KE= 3.749399502825D+01
 Symmetry B2G  KE= 2.231704562972D+00
 Symmetry B3G  KE= 2.231704562972D+00
 Symmetry AU   KE=-2.087779416672D-16
 Symmetry B1U  KE= 1.862582917512D+00
 Symmetry B2U  KE= 7.180958675058D+01
 Symmetry B3U  KE= 4.027179403526D+01
 Orbital energies and kinetic energies (alpha):
                                 1                 2
   1         (A1G)--O        -10.186507         15.870213
   2         (E1U)--O        -10.186251         15.875142
   3         (E1U)--O        -10.186251         15.875142
   4         (E2G)--O        -10.185717         15.884595
   5         (E2G)--O        -10.185717         15.884595
   6         (B1U)--O        -10.185460         15.892655
   7         (A1G)--O         -0.843788          1.483133
   8         (E1U)--O         -0.739615          1.591541
   9         (E1U)--O         -0.739615          1.591541
  10         (E2G)--O         -0.599168          1.456892
  11         (E2G)--O         -0.599168          1.456892
  12         (A1G)--O         -0.520410          0.948093
  13         (B1U)--O         -0.465147          1.317061
  14         (B2U)--O         -0.436106          1.440819
  15         (E1U)--O         -0.418774          1.228395
  16         (E1U)--O         -0.418774          1.228395
  17         (A2U)--O         -0.357185          0.931291
  18         (E2G)--O         -0.341635          1.405511
  19         (E2G)--O         -0.341635          1.405511
  20         (E1G)--O         -0.245127          1.115852
  21         (E1G)--O         -0.245127          1.115852
  22         (E2U)--V          0.002934          1.352087
  23         (E2U)--V          0.002934          1.352087
  24         (A1G)--V          0.096936          0.901724
  25         (E1U)--V          0.149520          0.944001
  26         (E1U)--V          0.149520          0.944001
  27         (B2G)--V          0.161687          1.644763
  28         (E2G)--V          0.183984          1.206462
  29         (E2G)--V          0.183984          1.206462
  30         (B1U)--V          0.194486          1.113966
  31         (E2G)--V          0.302422          1.485839
  32         (E2G)--V          0.302422          1.485839
  33         (E1U)--V          0.316344          1.536253
  34         (E1U)--V          0.316344          1.536253
  35         (B2U)--V          0.476618          1.466494
  36         (A2U)--V          0.528560          1.999623
  37         (B1U)--V          0.545845          2.958173
  38         (A1G)--V          0.548135          1.683792
  39         (A2G)--V          0.559546          1.946074
  40         (A1G)--V          0.591998          1.501639
  41         (E2G)--V          0.601006          2.465935
  42         (E2G)--V          0.601006          2.465935
  43         (E1G)--V          0.603263          2.043480
  44         (E1G)--V          0.603263          2.043480
  45         (E1U)--V          0.627703          1.977871
  46         (E1U)--V          0.627703          1.977871
  47         (E2U)--V          0.667900          2.199624
  48         (E2U)--V          0.667900          2.199624
  49         (B2G)--V          0.744910          2.231393
  50         (B1U)--V          0.846554          2.993011
  51         (E2G)--V          0.852514          2.770326
  52         (E2G)--V          0.852514          2.770326
  53         (E1U)--V          0.877645          2.512071
  54         (E1U)--V          0.877645          2.512071
  55         (E1U)--V          0.937112          2.476434
  56         (E1U)--V          0.937112          2.476434
  57         (A1G)--V          0.952895          2.649757
  58         (A2G)--V          0.955937          2.914912
  59         (E2G)--V          1.078746          2.067611
  60         (E2G)--V          1.078746          2.067611
  61         (E1U)--V          1.139391          2.287999
  62         (E1U)--V          1.139391          2.287999
  63         (B1U)--V          1.200129          2.384578
  64         (B1G)--V          1.262714          2.394164
  65         (A2U)--V          1.397309          2.528213
  66         (E2G)--V          1.442731          2.515798
  67         (E2G)--V          1.442731          2.515798
  68         (E2U)--V          1.485584          2.658861
  69         (E2U)--V          1.485584          2.658861
  70         (E1G)--V          1.513985          2.686843
  71         (E1G)--V          1.513985          2.686843
  72         (A1G)--V          1.760084          2.929282
  73         (B2U)--V          1.785315          3.154900
  74         (A1G)--V          1.874771          3.242199
  75         (B1U)--V          1.901359          3.040611
  76         (E1U)--V          1.992101          3.501339
  77         (E1U)--V          1.992101          3.501339
  78         (E2G)--V          2.060322          3.646891
  79         (E2G)--V          2.060322          3.646891
  80         (E2U)--V          2.147536          3.331091
  81         (E2U)--V          2.147536          3.331091
  82         (E1U)--V          2.148347          3.544189
  83         (E1U)--V          2.148347          3.544189
  84         (E1G)--V          2.305223          3.549664
  85         (E1G)--V          2.305223          3.549664
  86         (B2G)--V          2.314221          3.522120
  87         (E2G)--V          2.549950          4.068302
  88         (E2G)--V          2.549950          4.068302
  89         (A1U)--V          2.647964          3.914309
  90         (E2G)--V          2.705983          4.427464
  91         (E2G)--V          2.705983          4.427464
  92         (E1U)--V          2.715714          4.530315
  93         (E1U)--V          2.715714          4.530315
  94         (B1U)--V          2.765579          4.176700
  95         (A2G)--V          3.010089          4.918958
  96         (B1U)--V          3.409496          5.198777
  97         (A1G)--V          4.084122         10.184268
  98         (E1U)--V          4.120335         10.192424
  99         (E1U)--V          4.120335         10.192424
 100         (E2G)--V          4.333089         10.125858
 101         (E2G)--V          4.333089         10.125858
 102         (B1U)--V          4.666072         10.396042
 Total kinetic energy from orbitals= 2.299982416679D+02

 Test job not archived.
 1|1|UNPC-LAB102|SP|RB3LYP|6-31G(d)|C6H6|11032|01-Apr-2025|0||# b3lyp/6
 -31g(d) pop=full gfinput iop(3/33=1)||Title Card Required||0,1|C,0,0.,
 1.4014,0.|C,0,1.213648,0.7007,0.|C,0,1.213648,-0.7007,0.|C,0,0.,-1.401
 4,0.|C,0,-1.213648,-0.7007,0.|C,0,-1.213648,0.7007,0.|H,0,0.,2.4714,0.
 |H,0,2.140295,1.2357,0.|H,0,2.140295,-1.2357,0.|H,0,0.,-2.4714,0.|H,0,
 -2.140295,-1.2357,0.|H,0,-2.140295,1.2357,0.||Version=IA32W-G16RevA.03
 |State=1-A1G|HF=-232.2473851|RMSD=5.378e-009|Dipole=0.,0.,0.|Quadrupol
 e=1.7965783,1.7965783,-3.5931567,0.,0.,0.|PG=D06H [3C2'(H1C1.C1H1)]||@


 FOR THE NATURE OF THE CHEMICAL BOND
 IS THE PROBLEM AT THE HEART OF ALL CHEMISTRY.

                     -- BRYCE CRAWFORD, JR., 1953
 Job cpu time:       0 days  0 hours  0 minutes  5.0 seconds.
 Elapsed time:       0 days  0 hours  0 minutes  4.0 seconds.
 File lengths (MBytes):  RWF=     10 Int=      0 D2E=      0 Chk=      2 Scr=      1
 Normal termination of Gaussian 16 at Tue Apr 01 21:01:19 2025.
