 Entering Link 1 = C:\G16W\l1.exe PID=      2084.
  
 Copyright (c) 1988,1990,1992,1993,1995,1998,2003,2009,2016,
            Gaussian, Inc.  All Rights Reserved.
  
 This is part of the Gaussian(R) 16 program.  It is based on
 the Gaussian(R) 09 system (copyright 2009, Gaussian, Inc.),
 the Gaussian(R) 03 system (copyright 2003, Gaussian, Inc.),
 the Gaussian(R) 98 system (copyright 1998, Gaussian, Inc.),
 the Gaussian(R) 94 system (copyright 1995, Gaussian, Inc.),
 the Gaussian 92(TM) system (copyright 1992, Gaussian, Inc.),
 the Gaussian 90(TM) system (copyright 1990, Gaussian, Inc.),
 the Gaussian 88(TM) system (copyright 1988, Gaussian, Inc.),
 the Gaussian 86(TM) system (copyright 1986, Carnegie Mellon
 University), and the Gaussian 82(TM) system (copyright 1983,
 Carnegie Mellon University). Gaussian is a federally registered
 trademark of Gaussian, Inc.
  
 This software contains proprietary and confidential information,
 including trade secrets, belonging to Gaussian, Inc.
  
 This software is provided under written license and may be
 used, copied, transmitted, or stored only in accord with that
 written license.
  
 The following legend is applicable only to US Government
 contracts under FAR:
  
                    RESTRICTED RIGHTS LEGEND
  
 Use, reproduction and disclosure by the US Government is
 subject to restrictions as set forth in subparagraphs (a)
 and (c) of the Commercial Computer Software - Restricted
 Rights clause in FAR 52.227-19.
  
 Gaussian, Inc.
 340 Quinnipiac St., Bldg. 40, Wallingford CT 06492
  
  
 ---------------------------------------------------------------
 Warning -- This program may not be used in any manner that
 competes with the business of Gaussian, Inc. or will provide
 assistance to any competitor of Gaussian, Inc.  The licensee
 of this program is prohibited from giving any competitor of
 Gaussian, Inc. access to this program.  By using this program,
 the user acknowledges that Gaussian, Inc. is engaged in the
 business of creating and licensing software in the field of
 computational chemistry and represents and warrants to the
 licensee that it is not a competitor of Gaussian, Inc. and that
 it will not use this program in any manner prohibited above.
 ---------------------------------------------------------------
  

 Cite this work as:
 Gaussian 16, Revision A.03,
 M. J. Frisch, G. W. Trucks, H. B. Schlegel, G. E. Scuseria, 
 M. A. Robb, J. R. Cheeseman, G. Scalmani, V. Barone, 
 G. A. Petersson, H. Nakatsuji, X. Li, M. Caricato, A. V. Marenich, 
 J. Bloino, B. G. Janesko, R. Gomperts, B. Mennucci, H. P. Hratchian, 
 J. V. Ortiz, A. F. Izmaylov, J. L. Sonnenberg, D. Williams-Young, 
 F. Ding, F. Lipparini, F. Egidi, J. Goings, B. Peng, A. Petrone, 
 T. Henderson, D. Ranasinghe, V. G. Zakrzewski, J. Gao, N. Rega, 
 G. Zheng, W. Liang, M. Hada, M. Ehara, K. Toyota, R. Fukuda, 
 J. Hasegawa, M. Ishida, T. Nakajima, Y. Honda, O. Kitao, H. Nakai, 
 T. Vreven, K. Throssell, J. A. Montgomery, Jr., J. E. Peralta, 
 F. Ogliaro, M. J. Bearpark, J. J. Heyd, E. N. Brothers, K. N. Kudin, 
 V. N. Staroverov, T. A. Keith, R. Kobayashi, J. Normand, 
 K. Raghavachari, A. P. Rendell, J. C. Burant, S. S. Iyengar, 
 J. Tomasi, M. Cossi, J. M. Millam, M. Klene, C. Adamo, R. Cammi, 
 J. W. Ochterski, R. L. Martin, K. Morokuma, O. Farkas, 
 J. B. Foresman, and D. J. Fox, Gaussian, Inc., Wallingford CT, 2016.
 
 ******************************************
 Gaussian 16:  IA32W-G16RevA.03 25-Dec-2016
                01-Apr-2025 
 ******************************************
 %chk=D:\code\pywfn\tutori\mols\erxi.chk
 ----------
 # hf/3-21g
 ----------
 1/38=1,172=1/1;
 2/12=2,17=6,18=5,40=1/2;
 3/5=5,11=9,25=1,30=1/1,2,3;
 4//1;
 5/5=2,38=5/2;
 6/7=2,8=2,9=2,10=2,28=1/1;
 99/5=1,9=1/99;
 -------------------
 Title Card Required
 -------------------
 Symbolic Z-matrix:
 Charge =  0 Multiplicity = 1
 C                    -0.44159   0.63079   0. 
 H                    -1.50752   0.53765   0. 
 C                     0.44159  -0.63079   0. 
 H                     1.50752  -0.53765   0. 
 C                    -0.13128  -1.85896   0. 
 H                    -1.19722  -1.9521    0. 
 H                     0.48236  -2.73552   0. 
 C                     0.13128   1.85896   0. 
 H                    -0.48236   2.73552   0. 
 H                     1.19722   1.9521    0. 
 
                          Input orientation:                          
 ---------------------------------------------------------------------
 Center     Atomic      Atomic             Coordinates (Angstroms)
 Number     Number       Type             X           Y           Z
 ---------------------------------------------------------------------
      1          6           0       -0.441587    0.630794    0.000000
      2          1           0       -1.507525    0.537651    0.000000
      3          6           0        0.441587   -0.630794    0.000000
      4          1           0        1.507525   -0.537651    0.000000
      5          6           0       -0.131277   -1.858961    0.000000
      6          1           0       -1.197215   -1.952104    0.000000
      7          1           0        0.482356   -2.735520    0.000000
      8          6           0        0.131277    1.858961    0.000000
      9          1           0       -0.482356    2.735520    0.000000
     10          1           0        1.197215    1.952104    0.000000
 ---------------------------------------------------------------------
                    Distance matrix (angstroms):
                    1          2          3          4          5
     1  C    0.000000
     2  H    1.070000   0.000000
     3  C    1.540000   2.272510   0.000000
     4  H    2.272510   3.201062   1.070000   0.000000
     5  C    2.509019   2.763659   1.355200   2.105120   0.000000
     6  H    2.691159   2.509019   2.105120   3.052261   1.070000
     7  H    3.490808   3.830571   2.105120   2.425200   1.070000
     8  C    1.355200   2.105120   2.509019   2.763659   3.727182
     9  H    2.105120   2.425200   3.490808   3.830571   4.607875
    10  H    2.105120   3.052261   2.691159   2.509019   4.035977
                    6          7          8          9         10
     6  H    0.000000
     7  H    1.853294   0.000000
     8  C    4.035977   4.607875   0.000000
     9  H    4.741818   5.555442   1.070000   0.000000
    10  H    4.579972   4.741818   1.070000   1.853294   0.000000
 Stoichiometry    C4H6
 Framework group  C2H[SGH(C4H6)]
 Deg. of freedom     9
 Full point group                 C2H     NOp   4
 Largest Abelian subgroup         C2H     NOp   4
 Largest concise Abelian subgroup C2      NOp   2
                         Standard orientation:                         
 ---------------------------------------------------------------------
 Center     Atomic      Atomic             Coordinates (Angstroms)
 Number     Number       Type             X           Y           Z
 ---------------------------------------------------------------------
      1          6           0       -0.360181    0.680566    0.000000
      2          1           0       -1.429455    0.719971    0.000000
      3          6           0        0.360181   -0.680566    0.000000
      4          1           0        1.429455   -0.719971    0.000000
      5          6           0       -0.360181   -1.828453    0.000000
      6          1           0       -1.429455   -1.789048    0.000000
      7          1           0        0.140330   -2.774174    0.000000
      8          6           0        0.360181    1.828453    0.000000
      9          1           0       -0.140330    2.774174    0.000000
     10          1           0        1.429455    1.789048    0.000000
 ---------------------------------------------------------------------
 Rotational constants (GHZ):          38.7833700           4.3628861           3.9217174
 Standard basis: 3-21G (6D, 7F)
 There are    20 symmetry adapted cartesian basis functions of AG  symmetry.
 There are     4 symmetry adapted cartesian basis functions of BG  symmetry.
 There are     4 symmetry adapted cartesian basis functions of AU  symmetry.
 There are    20 symmetry adapted cartesian basis functions of BU  symmetry.
 There are    20 symmetry adapted basis functions of AG  symmetry.
 There are     4 symmetry adapted basis functions of BG  symmetry.
 There are     4 symmetry adapted basis functions of AU  symmetry.
 There are    20 symmetry adapted basis functions of BU  symmetry.
    48 basis functions,    78 primitive gaussians,    48 cartesian basis functions
    15 alpha electrons       15 beta electrons
       nuclear repulsion energy       102.5091108664 Hartrees.
 NAtoms=   10 NActive=   10 NUniq=    5 SFac= 4.00D+00 NAtFMM=   60 NAOKFM=F Big=F
 Integral buffers will be    262144 words long.
 Raffenetti 1 integral format.
 Two-electron integral symmetry is turned on.
 One-electron integrals computed using PRISM.
 NBasis=    48 RedAO= T EigKep=  1.04D-02  NBF=    20     4     4    20
 NBsUse=    48 1.00D-06 EigRej= -1.00D+00 NBFU=    20     4     4    20
 ExpMin= 1.83D-01 ExpMax= 1.72D+02 ExpMxC= 1.72D+02 IAcc=3 IRadAn=         5 AccDes= 0.00D+00
 Harris functional with IExCor=  205 and IRadAn=       5 diagonalized for initial guess.
 HarFok:  IExCor=  205 AccDes= 0.00D+00 IRadAn=         5 IDoV= 1 UseB2=F ITyADJ=14
 ICtDFT=  3500011 ScaDFX=  1.000000  1.000000  1.000000  1.000000
 FoFCou: FMM=F IPFlag=           0 FMFlag=      100000 FMFlg1=           0
         NFxFlg=           0 DoJE=T BraDBF=F KetDBF=T FulRan=T
         wScrn=  0.000000 ICntrl=       500 IOpCl=  0 I1Cent=   200000004 NGrid=           0
         NMat0=    1 NMatS0=      1 NMatT0=    0 NMatD0=    1 NMtDS0=    0 NMtDT0=    0
 Petite list used in FoFCou.
 Initial guess orbital symmetries:
       Occupied  (BU) (AG) (BU) (AG) (AG) (BU) (AG) (BU) (AG) (BU)
                 (AG) (BU) (AG) (AU) (BG)
       Virtual   (AU) (BG) (BU) (AG) (BU) (BU) (AG) (AG) (BU) (AG)
                 (BU) (BU) (AU) (AG) (BU) (BG) (AG) (AU) (BU) (BG)
                 (AG) (AG) (BU) (AG) (BU) (BU) (AG) (AG) (BU) (BU)
                 (AG) (AG) (BU)
 The electronic state of the initial guess is 1-AG.
 Keep R1 ints in memory in symmetry-blocked form, NReq=1509146.
 Requested convergence on RMS density matrix=1.00D-08 within 128 cycles.
 Requested convergence on MAX density matrix=1.00D-06.
 Requested convergence on             energy=1.00D-06.
 No special actions if energy rises.
 SCF Done:  E(RHF) =  -154.051500925     A.U. after   10 cycles
            NFock= 10  Conv=0.40D-08     -V/T= 2.0040

 **********************************************************************

            Population analysis using the SCF density.

 **********************************************************************

 Orbital symmetries:
       Occupied  (BU) (AG) (BU) (AG) (AG) (BU) (AG) (BU) (AG) (BU)
                 (AG) (BU) (AG) (AU) (BG)
       Virtual   (AU) (BG) (BU) (AG) (BU) (BU) (AG) (AG) (AG) (BU)
                 (BU) (BU) (AG) (BU) (AU) (BG) (AG) (BU) (BG) (AU)
                 (AG) (AG) (BU) (AG) (BU) (BU) (AG) (AG) (BU) (BU)
                 (AG) (AG) (BU)
 The electronic state is 1-AG.
 Alpha  occ. eigenvalues --  -11.18933 -11.18902 -11.16941 -11.16930  -1.07531
 Alpha  occ. eigenvalues --   -0.99781  -0.81031  -0.75934  -0.64042  -0.63684
 Alpha  occ. eigenvalues --   -0.55042  -0.54975  -0.48877  -0.43230  -0.32056
 Alpha virt. eigenvalues --    0.13034   0.24991   0.28886   0.29980   0.30306
 Alpha virt. eigenvalues --    0.35925   0.36319   0.40020   0.53960   0.54113
 Alpha virt. eigenvalues --    0.57871   0.83618   0.91901   0.96979   0.97727
 Alpha virt. eigenvalues --    1.02070   1.08943   1.09028   1.09938   1.10926
 Alpha virt. eigenvalues --    1.13015   1.31943   1.32454   1.37397   1.38503
 Alpha virt. eigenvalues --    1.42491   1.52633   1.59247   1.64085   1.76876
 Alpha virt. eigenvalues --    1.78200   1.96430   2.15369
          Condensed to atoms (all electrons):
               1          2          3          4          5          6
     1  C    5.205662   0.399313   0.342266  -0.029144  -0.086972  -0.000182
     2  H    0.399313   0.429015  -0.029144   0.000894   0.001545   0.001700
     3  C    0.342266  -0.029144   5.205662   0.399313   0.516337  -0.054685
     4  H   -0.029144   0.000894   0.399313   0.429015  -0.036711   0.001849
     5  C   -0.086972   0.001545   0.516337  -0.036711   5.229912   0.399794
     6  H   -0.000182   0.001700  -0.054685   0.001849   0.399794   0.454680
     7  H    0.002377   0.000003  -0.049589  -0.001322   0.393473  -0.017988
     8  C    0.516337  -0.036711  -0.086972   0.001545   0.002057   0.000093
     9  H   -0.049589  -0.001322   0.002377   0.000003  -0.000057  -0.000002
    10  H   -0.054685   0.001849  -0.000182   0.001700   0.000093   0.000006
               7          8          9         10
     1  C    0.002377   0.516337  -0.049589  -0.054685
     2  H    0.000003  -0.036711  -0.001322   0.001849
     3  C   -0.049589  -0.086972   0.002377  -0.000182
     4  H   -0.001322   0.001545   0.000003   0.001700
     5  C    0.393473   0.002057  -0.000057   0.000093
     6  H   -0.017988   0.000093  -0.000002   0.000006
     7  H    0.455842  -0.000057   0.000000  -0.000002
     8  C   -0.000057   5.229912   0.393473   0.399794
     9  H    0.000000   0.393473   0.455842  -0.017988
    10  H   -0.000002   0.399794  -0.017988   0.454680
 Mulliken charges:
               1
     1  C   -0.245382
     2  H    0.232857
     3  C   -0.245382
     4  H    0.232857
     5  C   -0.419471
     6  H    0.214734
     7  H    0.217262
     8  C   -0.419471
     9  H    0.217262
    10  H    0.214734
 Sum of Mulliken charges =   0.00000
 Mulliken charges with hydrogens summed into heavy atoms:
               1
     1  C   -0.012525
     3  C   -0.012525
     5  C    0.012525
     8  C    0.012525
 Electronic spatial extent (au):  <R**2>=            341.0043
 Charge=              0.0000 electrons
 Dipole moment (field-independent basis, Debye):
    X=              0.0000    Y=              0.0000    Z=              0.0000  Tot=              0.0000
 Quadrupole moment (field-independent basis, Debye-Ang):
   XX=            -22.4019   YY=            -23.1841   ZZ=            -29.6204
   XY=             -0.1780   XZ=              0.0000   YZ=              0.0000
 Traceless Quadrupole moment (field-independent basis, Debye-Ang):
   XX=              2.6669   YY=              1.8847   ZZ=             -4.5516
   XY=             -0.1780   XZ=              0.0000   YZ=              0.0000
 Octapole moment (field-independent basis, Debye-Ang**2):
  XXX=              0.0000  YYY=              0.0000  ZZZ=              0.0000  XYY=              0.0000
  XXY=              0.0000  XXZ=              0.0000  XZZ=              0.0000  YZZ=              0.0000
  YYZ=              0.0000  XYZ=              0.0000
 Hexadecapole moment (field-independent basis, Debye-Ang**3):
 XXXX=            -63.5604 YYYY=           -331.8181 ZZZZ=            -31.4614 XXXY=            -16.0523
 XXXZ=              0.0000 YYYX=            -22.9482 YYYZ=              0.0000 ZZZX=              0.0000
 ZZZY=              0.0000 XXYY=            -68.7558 XXZZ=            -18.5978 YYZZ=            -74.9757
 XXYZ=              0.0000 YYXZ=              0.0000 ZZXY=             -6.8036
 N-N= 1.025091108664D+02 E-N=-5.626036471439D+02  KE= 1.534401347375D+02
 Symmetry AG   KE= 7.622957599843D+01
 Symmetry BG   KE= 2.063399811867D+00
 Symmetry AU   KE= 1.820332034736D+00
 Symmetry BU   KE= 7.332682689252D+01
 1|1|UNPC-LAB102|SP|RHF|3-21G|C4H6|11032|01-Apr-2025|0||# hf/3-21g||Tit
 le Card Required||0,1|C,0,-0.44158654,0.6307942,0.|H,0,-1.50752482,0.5
 3765131,0.|C,0,0.44158654,-0.6307942,0.|H,0,1.50752482,-0.53765131,0.|
 C,0,-0.13127679,-1.85896139,0.|H,0,-1.19721507,-1.95210428,0.|H,0,0.48
 235645,-2.73551957,0.|C,0,0.13127679,1.85896139,0.|H,0,-0.48235645,2.7
 3551957,0.|H,0,1.19721507,1.95210428,0.||Version=IA32W-G16RevA.03|Stat
 e=1-AG|HF=-154.0515009|RMSD=3.980e-009|Dipole=0.,0.,0.|Quadrupole=2.00
 63371,1.3776418,-3.383979,-0.0569031,0.,0.|PG=C02H [SGH(C4H6)]||@


 FOR THE NATURE OF THE CHEMICAL BOND
 IS THE PROBLEM AT THE HEART OF ALL CHEMISTRY.

                     -- BRYCE CRAWFORD, JR., 1953
 Job cpu time:       0 days  0 hours  0 minutes  3.0 seconds.
 Elapsed time:       0 days  0 hours  0 minutes  1.0 seconds.
 File lengths (MBytes):  RWF=      5 Int=      0 D2E=      0 Chk=      1 Scr=      1
 Normal termination of Gaussian 16 at Tue Apr 01 21:01:22 2025.
