Title Card Required                                                     
SP        RB3LYP                                                      6-31G(d)            
Number of atoms                            I               12
Info1-9                                    I   N=           9
          20          19           0           0           0         111
           1          18        -502
Full Title                                 C   N=           2
Title Card Required     
Route                                      C   N=           4
# b3lyp/6-31g(d) pop=full gfinput iop(3/33=1)   
Charge                                     I                0
Multiplicity                               I                1
Number of electrons                        I               42
Number of alpha electrons                  I               21
Number of beta electrons                   I               21
Number of basis functions                  I              102
Number of independent functions            I              102
Number of point charges in /Mol/           I                0
Number of translation vectors              I                0
Atomic numbers                             I   N=          12
           6           6           6           6           6           6
           1           1           1           1           1           1
Nuclear charges                            R   N=          12
  6.00000000E+00  6.00000000E+00  6.00000000E+00  6.00000000E+00  6.00000000E+00
  6.00000000E+00  1.00000000E+00  1.00000000E+00  1.00000000E+00  1.00000000E+00
  1.00000000E+00  1.00000000E+00
Current cartesian coordinates              R   N=          36
 -8.15900888E-10  2.64826219E+00  0.00000000E+00  2.29346233E+00  1.32413110E+00
  0.00000000E+00  2.29346233E+00 -1.32413109E+00  0.00000000E+00  8.15900564E-10
 -2.64826219E+00  0.00000000E+00 -2.29346233E+00 -1.32413110E+00  0.00000000E+00
 -2.29346233E+00  1.32413109E+00  0.00000000E+00 -1.43885932E-09  4.67026914E+00
  0.00000000E+00  4.04457172E+00  2.33513457E+00  0.00000000E+00  4.04457172E+00
 -2.33513457E+00  0.00000000E+00  1.43885875E-09 -4.67026914E+00  0.00000000E+00
 -4.04457172E+00 -2.33513457E+00  0.00000000E+00 -4.04457172E+00  2.33513457E+00
  0.00000000E+00
Number of symbols in /Mol/                 I                0
Force Field                                I                0
Atom Types                                 C   N=          12
                                                            
                                                            
                        
Int Atom Types                             I   N=          12
           0           0           0           0           0           0
           0           0           0           0           0           0
MM charges                                 R   N=          12
  0.00000000E+00  0.00000000E+00  0.00000000E+00  0.00000000E+00  0.00000000E+00
  0.00000000E+00  0.00000000E+00  0.00000000E+00  0.00000000E+00  0.00000000E+00
  0.00000000E+00  0.00000000E+00
Integer atomic weights                     I   N=          12
          12          12          12          12          12          12
           1           1           1           1           1           1
Real atomic weights                        R   N=          12
  1.20000000E+01  1.20000000E+01  1.20000000E+01  1.20000000E+01  1.20000000E+01
  1.20000000E+01  1.00782504E+00  1.00782504E+00  1.00782504E+00  1.00782504E+00
  1.00782504E+00  1.00782504E+00
Atom fragment info                         I   N=          12
           0           0           0           0           0           0
           0           0           0           0           0           0
Atom residue num                           I   N=          12
           0           0           0           0           0           0
           0           0           0           0           0           0
Nuclear spins                              I   N=          12
           0           0           0           0           0           0
           1           1           1           1           1           1
Nuclear ZEff                               R   N=          12
 -3.60000000E+00 -3.60000000E+00 -3.60000000E+00 -3.60000000E+00 -3.60000000E+00
 -3.60000000E+00 -1.00000000E+00 -1.00000000E+00 -1.00000000E+00 -1.00000000E+00
 -1.00000000E+00 -1.00000000E+00
Nuclear ZNuc                               R   N=          12
  6.00000000E+00  6.00000000E+00  6.00000000E+00  6.00000000E+00  6.00000000E+00
  6.00000000E+00  1.00000000E+00  1.00000000E+00  1.00000000E+00  1.00000000E+00
  1.00000000E+00  1.00000000E+00
Nuclear QMom                               R   N=          12
  0.00000000E+00  0.00000000E+00  0.00000000E+00  0.00000000E+00  0.00000000E+00
  0.00000000E+00  0.00000000E+00  0.00000000E+00  0.00000000E+00  0.00000000E+00
  0.00000000E+00  0.00000000E+00
Nuclear GFac                               R   N=          12
  0.00000000E+00  0.00000000E+00  0.00000000E+00  0.00000000E+00  0.00000000E+00
  0.00000000E+00  2.79284600E+00  2.79284600E+00  2.79284600E+00  2.79284600E+00
  2.79284600E+00  2.79284600E+00
MicOpt                                     I   N=          12
          -1          -1          -1          -1          -1          -1
          -1          -1          -1          -1          -1          -1
Number of residues                         I                0
Number of secondary structures             I                0
SymInf integers                            I   N=          26
           4           8           1           1           1          -1
          -1           1          -1           1          -1           1
          -1          -1          -1           1           1           1
          -1           1           1           1          -1          -1
          -1          -1
RotTr to input orientation                 R   N=          12
  1.00000000E+00  3.08089165E-10  0.00000000E+00 -3.08089165E-10  1.00000000E+00
  0.00000000E+00  0.00000000E+00  0.00000000E+00  1.00000000E+00  0.00000000E+00
  4.22942105E-17  0.00000000E+00
Number of contracted shells                I               36
Number of primitive shells                 I               90
Pure/Cartesian d shells                    I                1
Pure/Cartesian f shells                    I                0
Highest angular momentum                   I                2
Largest degree of contraction              I                6
Shell types                                I   N=          36
           0          -1          -1           2           0          -1
          -1           2           0          -1          -1           2
           0          -1          -1           2           0          -1
          -1           2           0          -1          -1           2
           0           0           0           0           0           0
           0           0           0           0           0           0
Number of primitives per shell             I   N=          36
           6           3           1           1           6           3
           1           1           6           3           1           1
           6           3           1           1           6           3
           1           1           6           3           1           1
           3           1           3           1           3           1
           3           1           3           1           3           1
Shell to atom map                          I   N=          36
           1           1           1           1           2           2
           2           2           3           3           3           3
           4           4           4           4           5           5
           5           5           6           6           6           6
           7           7           8           8           9           9
          10          10          11          11          12          12
Primitive exponents                        R   N=          90
  3.04752488E+03  4.57369518E+02  1.03948685E+02  2.92101553E+01  9.28666296E+00
  3.16392696E+00  7.86827235E+00  1.88128854E+00  5.44249258E-01  1.68714478E-01
  8.00000000E-01  3.04752488E+03  4.57369518E+02  1.03948685E+02  2.92101553E+01
  9.28666296E+00  3.16392696E+00  7.86827235E+00  1.88128854E+00  5.44249258E-01
  1.68714478E-01  8.00000000E-01  3.04752488E+03  4.57369518E+02  1.03948685E+02
  2.92101553E+01  9.28666296E+00  3.16392696E+00  7.86827235E+00  1.88128854E+00
  5.44249258E-01  1.68714478E-01  8.00000000E-01  3.04752488E+03  4.57369518E+02
  1.03948685E+02  2.92101553E+01  9.28666296E+00  3.16392696E+00  7.86827235E+00
  1.88128854E+00  5.44249258E-01  1.68714478E-01  8.00000000E-01  3.04752488E+03
  4.57369518E+02  1.03948685E+02  2.92101553E+01  9.28666296E+00  3.16392696E+00
  7.86827235E+00  1.88128854E+00  5.44249258E-01  1.68714478E-01  8.00000000E-01
  3.04752488E+03  4.57369518E+02  1.03948685E+02  2.92101553E+01  9.28666296E+00
  3.16392696E+00  7.86827235E+00  1.88128854E+00  5.44249258E-01  1.68714478E-01
  8.00000000E-01  1.87311370E+01  2.82539436E+00  6.40121692E-01  1.61277759E-01
  1.87311370E+01  2.82539436E+00  6.40121692E-01  1.61277759E-01  1.87311370E+01
  2.82539436E+00  6.40121692E-01  1.61277759E-01  1.87311370E+01  2.82539436E+00
  6.40121692E-01  1.61277759E-01  1.87311370E+01  2.82539436E+00  6.40121692E-01
  1.61277759E-01  1.87311370E+01  2.82539436E+00  6.40121692E-01  1.61277759E-01
Contraction coefficients                   R   N=          90
  1.83473713E-03  1.40373228E-02  6.88426223E-02  2.32184443E-01  4.67941348E-01
  3.62311985E-01 -1.19332420E-01 -1.60854152E-01  1.14345644E+00  1.00000000E+00
  1.00000000E+00  1.83473713E-03  1.40373228E-02  6.88426223E-02  2.32184443E-01
  4.67941348E-01  3.62311985E-01 -1.19332420E-01 -1.60854152E-01  1.14345644E+00
  1.00000000E+00  1.00000000E+00  1.83473713E-03  1.40373228E-02  6.88426223E-02
  2.32184443E-01  4.67941348E-01  3.62311985E-01 -1.19332420E-01 -1.60854152E-01
  1.14345644E+00  1.00000000E+00  1.00000000E+00  1.83473713E-03  1.40373228E-02
  6.88426223E-02  2.32184443E-01  4.67941348E-01  3.62311985E-01 -1.19332420E-01
 -1.60854152E-01  1.14345644E+00  1.00000000E+00  1.00000000E+00  1.83473713E-03
  1.40373228E-02  6.88426223E-02  2.32184443E-01  4.67941348E-01  3.62311985E-01
 -1.19332420E-01 -1.60854152E-01  1.14345644E+00  1.00000000E+00  1.00000000E+00
  1.83473713E-03  1.40373228E-02  6.88426223E-02  2.32184443E-01  4.67941348E-01
  3.62311985E-01 -1.19332420E-01 -1.60854152E-01  1.14345644E+00  1.00000000E+00
  1.00000000E+00  3.34946043E-02  2.34726953E-01  8.13757326E-01  1.00000000E+00
  3.34946043E-02  2.34726953E-01  8.13757326E-01  1.00000000E+00  3.34946043E-02
  2.34726953E-01  8.13757326E-01  1.00000000E+00  3.34946043E-02  2.34726953E-01
  8.13757326E-01  1.00000000E+00  3.34946043E-02  2.34726953E-01  8.13757326E-01
  1.00000000E+00  3.34946043E-02  2.34726953E-01  8.13757326E-01  1.00000000E+00
P(S=P) Contraction coefficients            R   N=          90
  0.00000000E+00  0.00000000E+00  0.00000000E+00  0.00000000E+00  0.00000000E+00
  0.00000000E+00  6.89990666E-02  3.16423961E-01  7.44308291E-01  1.00000000E+00
  0.00000000E+00  0.00000000E+00  0.00000000E+00  0.00000000E+00  0.00000000E+00
  0.00000000E+00  0.00000000E+00  6.89990666E-02  3.16423961E-01  7.44308291E-01
  1.00000000E+00  0.00000000E+00  0.00000000E+00  0.00000000E+00  0.00000000E+00
  0.00000000E+00  0.00000000E+00  0.00000000E+00  6.89990666E-02  3.16423961E-01
  7.44308291E-01  1.00000000E+00  0.00000000E+00  0.00000000E+00  0.00000000E+00
  0.00000000E+00  0.00000000E+00  0.00000000E+00  0.00000000E+00  6.89990666E-02
  3.16423961E-01  7.44308291E-01  1.00000000E+00  0.00000000E+00  0.00000000E+00
  0.00000000E+00  0.00000000E+00  0.00000000E+00  0.00000000E+00  0.00000000E+00
  6.89990666E-02  3.16423961E-01  7.44308291E-01  1.00000000E+00  0.00000000E+00
  0.00000000E+00  0.00000000E+00  0.00000000E+00  0.00000000E+00  0.00000000E+00
  0.00000000E+00  6.89990666E-02  3.16423961E-01  7.44308291E-01  1.00000000E+00
  0.00000000E+00  0.00000000E+00  0.00000000E+00  0.00000000E+00  0.00000000E+00
  0.00000000E+00  0.00000000E+00  0.00000000E+00  0.00000000E+00  0.00000000E+00
  0.00000000E+00  0.00000000E+00  0.00000000E+00  0.00000000E+00  0.00000000E+00
  0.00000000E+00  0.00000000E+00  0.00000000E+00  0.00000000E+00  0.00000000E+00
  0.00000000E+00  0.00000000E+00  0.00000000E+00  0.00000000E+00  0.00000000E+00
Coordinates of each shell                  R   N=         108
  0.00000000E+00  2.64826219E+00  0.00000000E+00  0.00000000E+00  2.64826219E+00
  0.00000000E+00  0.00000000E+00  2.64826219E+00  0.00000000E+00  0.00000000E+00
  2.64826219E+00  0.00000000E+00  2.29346233E+00  1.32413110E+00  0.00000000E+00
  2.29346233E+00  1.32413110E+00  0.00000000E+00  2.29346233E+00  1.32413110E+00
  0.00000000E+00  2.29346233E+00  1.32413110E+00  0.00000000E+00  2.29346233E+00
 -1.32413110E+00  0.00000000E+00  2.29346233E+00 -1.32413110E+00  0.00000000E+00
  2.29346233E+00 -1.32413110E+00  0.00000000E+00  2.29346233E+00 -1.32413110E+00
  0.00000000E+00 -3.24307871E-16 -2.64826219E+00  0.00000000E+00 -3.24307871E-16
 -2.64826219E+00  0.00000000E+00 -3.24307871E-16 -2.64826219E+00  0.00000000E+00
 -3.24307871E-16 -2.64826219E+00  0.00000000E+00 -2.29346233E+00 -1.32413110E+00
  0.00000000E+00 -2.29346233E+00 -1.32413110E+00  0.00000000E+00 -2.29346233E+00
 -1.32413110E+00  0.00000000E+00 -2.29346233E+00 -1.32413110E+00  0.00000000E+00
 -2.29346233E+00  1.32413110E+00  0.00000000E+00 -2.29346233E+00  1.32413110E+00
  0.00000000E+00 -2.29346233E+00  1.32413110E+00  0.00000000E+00 -2.29346233E+00
  1.32413110E+00  0.00000000E+00  0.00000000E+00  4.67026914E+00  0.00000000E+00
  0.00000000E+00  4.67026914E+00  0.00000000E+00  4.04457172E+00  2.33513457E+00
  0.00000000E+00  4.04457172E+00  2.33513457E+00  0.00000000E+00  4.04457172E+00
 -2.33513457E+00  0.00000000E+00  4.04457172E+00 -2.33513457E+00  0.00000000E+00
 -5.71924127E-16 -4.67026914E+00  0.00000000E+00 -5.71924127E-16 -4.67026914E+00
  0.00000000E+00 -4.04457172E+00 -2.33513457E+00  0.00000000E+00 -4.04457172E+00
 -2.33513457E+00  0.00000000E+00 -4.04457172E+00  2.33513457E+00  0.00000000E+00
 -4.04457172E+00  2.33513457E+00  0.00000000E+00
Num ILSW                                   I              100
ILSW                                       I   N=         100
           0           1           0           0           2           0
           0           0           0           0         402          -1
           5           0           0           0           0           0
           0           0           1           0           0           0
           1           0           0           0           0           0
           0           0      100000           0          -1           0
           0           0           0           0           0           0
           0           0           0           1           0           0
           0 -2000000000           1           0           0           0
           0           0           4          52           0           0
           0           0           5           0           0           0
           0           0           0           0           0           1
           0           0           0           0           0           0
           0           0           0           0           0           0
           0           0           0           0           0           0
           0           0           0           0           0           0
           0           0           0           0
Num RLSW                                   I               52
RLSW                                       R   N=          52
  8.00000000E-01  7.20000000E-01  1.00000000E+00  8.10000000E-01  2.00000000E-01
  0.00000000E+00  0.00000000E+00  1.00000000E+00  0.00000000E+00  0.00000000E+00
  0.00000000E+00  0.00000000E+00  1.00000000E+00  0.00000000E+00  0.00000000E+00
  0.00000000E+00  0.00000000E+00  1.00000000E+00  0.00000000E+00  0.00000000E+00
  0.00000000E+00  0.00000000E+00  1.00000000E+00  0.00000000E+00  0.00000000E+00
  0.00000000E+00  0.00000000E+00  1.00000000E+00  0.00000000E+00  0.00000000E+00
  0.00000000E+00  0.00000000E+00  1.00000000E+00  0.00000000E+00  0.00000000E+00
  0.00000000E+00  0.00000000E+00  0.00000000E+00  1.00000000E+00  1.00000000E+00
  0.00000000E+00  1.00000000E+00  0.00000000E+00  0.00000000E+00  0.00000000E+00
  0.00000000E+00  0.00000000E+00  0.00000000E+00  0.00000000E+00  0.00000000E+00
  0.00000000E+00  0.00000000E+00
MxBond                                     I                3
NBond                                      I   N=          12
           3           3           3           3           3           3
           1           1           1           1           1           1
IBond                                      I   N=          36
           2           6           7           1           3           8
           2           4           9           3           5          10
           4           6          11           1           5          12
           1           0           0           2           0           0
           3           0           0           4           0           0
           5           0           0           6           0           0
RBond                                      R   N=          36
  1.50000000E+00  1.50000000E+00  1.00000000E+00  1.50000000E+00  1.50000000E+00
  1.00000000E+00  1.50000000E+00  1.50000000E+00  1.00000000E+00  1.50000000E+00
  1.50000000E+00  1.00000000E+00  1.50000000E+00  1.50000000E+00  1.00000000E+00
  1.50000000E+00  1.50000000E+00  1.00000000E+00  1.00000000E+00  0.00000000E+00
  0.00000000E+00  1.00000000E+00  0.00000000E+00  0.00000000E+00  1.00000000E+00
  0.00000000E+00  0.00000000E+00  1.00000000E+00  0.00000000E+00  0.00000000E+00
  1.00000000E+00  0.00000000E+00  0.00000000E+00  1.00000000E+00  0.00000000E+00
  0.00000000E+00
Virial Ratio                               R      2.009778959177271E+00
SCF Energy                                 R     -2.322473850840622E+02
Total Energy                               R     -2.322473850840622E+02
RMS Density                                R      5.377944470340682E-09
Job Status                                 I                1
Nuclear derivative order                   I                0
External E-field                           R   N=          35
  0.00000000E+00  0.00000000E+00  0.00000000E+00  0.00000000E+00  0.00000000E+00
  0.00000000E+00  0.00000000E+00  0.00000000E+00  0.00000000E+00  0.00000000E+00
  0.00000000E+00  0.00000000E+00  0.00000000E+00  0.00000000E+00  0.00000000E+00
  0.00000000E+00  0.00000000E+00  0.00000000E+00  0.00000000E+00  0.00000000E+00
  0.00000000E+00  0.00000000E+00  0.00000000E+00  0.00000000E+00  0.00000000E+00
  0.00000000E+00  0.00000000E+00  0.00000000E+00  0.00000000E+00  0.00000000E+00
  0.00000000E+00  0.00000000E+00  0.00000000E+00  0.00000000E+00  0.00000000E+00
IOpCl                                      I                0
IROHF                                      I                0
Alpha Orbital Energies                     R   N=         102
 -1.01865073E+01 -1.01862514E+01 -1.01862514E+01 -1.01857171E+01 -1.01857171E+01
 -1.01854604E+01 -8.43787741E-01 -7.39615473E-01 -7.39615473E-01 -5.99168422E-01
 -5.99168422E-01 -5.20409819E-01 -4.65146685E-01 -4.36106288E-01 -4.18773555E-01
 -4.18773555E-01 -3.57184901E-01 -3.41634850E-01 -3.41634850E-01 -2.45127136E-01
 -2.45127136E-01  2.93400020E-03  2.93400020E-03  9.69358666E-02  1.49519944E-01
  1.49519944E-01  1.61686911E-01  1.83984248E-01  1.83984248E-01  1.94486244E-01
  3.02422300E-01  3.02422300E-01  3.16344172E-01  3.16344172E-01  4.76618384E-01
  5.28560002E-01  5.45844772E-01  5.48134978E-01  5.59545600E-01  5.91998005E-01
  6.01005996E-01  6.01005996E-01  6.03263493E-01  6.03263493E-01  6.27702740E-01
  6.27702740E-01  6.67900345E-01  6.67900345E-01  7.44909765E-01  8.46554330E-01
  8.52513609E-01  8.52513609E-01  8.77644968E-01  8.77644968E-01  9.37112105E-01
  9.37112105E-01  9.52894782E-01  9.55937062E-01  1.07874567E+00  1.07874567E+00
  1.13939060E+00  1.13939060E+00  1.20012886E+00  1.26271417E+00  1.39730897E+00
  1.44273089E+00  1.44273089E+00  1.48558430E+00  1.48558430E+00  1.51398524E+00
  1.51398524E+00  1.76008417E+00  1.78531525E+00  1.87477132E+00  1.90135852E+00
  1.99210088E+00  1.99210088E+00  2.06032225E+00  2.06032225E+00  2.14753633E+00
  2.14753633E+00  2.14834663E+00  2.14834663E+00  2.30522271E+00  2.30522271E+00
  2.31422081E+00  2.54994997E+00  2.54994997E+00  2.64796413E+00  2.70598288E+00
  2.70598288E+00  2.71571388E+00  2.71571388E+00  2.76557941E+00  3.01008871E+00
  3.40949575E+00  4.08412202E+00  4.12033537E+00  4.12033537E+00  4.33308913E+00
  4.33308913E+00  4.66607210E+00
Alpha MO coefficients                      R   N=       10404
  4.05134267E-01  1.97781425E-02  0.00000000E+00  1.44445276E-04  0.00000000E+00
 -2.58626444E-03  0.00000000E+00 -3.73864636E-04  0.00000000E+00 -4.04197153E-03
 -3.93130578E-03 -4.07003288E-03  0.00000000E+00  0.00000000E+00  0.00000000E+00
  4.05134267E-01  1.97781425E-02  1.25093279E-04  7.22226382E-05  0.00000000E+00
 -2.58626444E-03 -3.23776273E-04 -1.86932318E-04  0.00000000E+00 -3.95897221E-03
 -4.01430509E-03 -4.07003288E-03  5.53328772E-05  0.00000000E+00  0.00000000E+00
  4.05134267E-01  1.97781425E-02  1.25093279E-04 -7.22226382E-05  0.00000000E+00
 -2.58626444E-03 -3.23776273E-04  1.86932318E-04  0.00000000E+00 -3.95897221E-03
 -4.01430509E-03 -4.07003288E-03 -5.53328772E-05  0.00000000E+00  0.00000000E+00
  4.05134267E-01  1.97781425E-02  0.00000000E+00 -1.44445276E-04  0.00000000E+00
 -2.58626444E-03  0.00000000E+00  3.73864636E-04  0.00000000E+00 -4.04197153E-03
 -3.93130578E-03 -4.07003288E-03  0.00000000E+00  0.00000000E+00  0.00000000E+00
  4.05134267E-01  1.97781425E-02 -1.25093279E-04 -7.22226382E-05  0.00000000E+00
 -2.58626444E-03  3.23776273E-04  1.86932318E-04  0.00000000E+00 -3.95897221E-03
 -4.01430509E-03 -4.07003288E-03  5.53328772E-05  0.00000000E+00  0.00000000E+00
  4.05134267E-01  1.97781425E-02 -1.25093279E-04  7.22226382E-05  0.00000000E+00
 -2.58626444E-03  3.23776273E-04 -1.86932318E-04  0.00000000E+00 -3.95897221E-03
 -4.01430509E-03 -4.07003288E-03 -5.53328772E-05  0.00000000E+00  0.00000000E+00
 -2.00660261E-04  9.34542506E-04 -2.00660261E-04  9.34542506E-04 -2.00660261E-04
  9.34542506E-04 -2.00660261E-04  9.34542506E-04 -2.00660261E-04  9.34542506E-04
 -2.00660261E-04  9.34542506E-04  5.73077635E-01  2.84430698E-02  0.00000000E+00
 -1.54693367E-05  0.00000000E+00 -5.87375623E-03  0.00000000E+00  3.35090904E-04
  0.00000000E+00 -5.56778170E-03 -5.50792862E-03 -5.58468963E-03  0.00000000E+00
  0.00000000E+00  0.00000000E+00  2.86538818E-01  1.42215349E-02  1.21799059E-04
 -2.26431496E-04  0.00000000E+00 -2.93687811E-03 -5.19577241E-04  1.23502508E-03
  0.00000000E+00 -2.79492687E-03 -2.74292829E-03 -2.79234481E-03  3.72838844E-05
  0.00000000E+00  0.00000000E+00 -2.86538818E-01 -1.42215349E-02 -1.21799059E-04
 -2.26431496E-04  0.00000000E+00  2.93687811E-03  5.19577241E-04  1.23502508E-03
  0.00000000E+00  2.79492687E-03  2.74292829E-03  2.79234481E-03  3.72838844E-05
  0.00000000E+00  0.00000000E+00 -5.73077635E-01 -2.84430698E-02  0.00000000E+00
 -1.54693367E-05  0.00000000E+00  5.87375623E-03  0.00000000E+00  3.35090904E-04
  0.00000000E+00  5.56778170E-03  5.50792862E-03  5.58468963E-03  0.00000000E+00
  0.00000000E+00  0.00000000E+00 -2.86538818E-01 -1.42215349E-02  1.21799059E-04
 -2.26431496E-04  0.00000000E+00  2.93687811E-03 -5.19577241E-04  1.23502508E-03
  0.00000000E+00  2.79492687E-03  2.74292829E-03  2.79234481E-03 -3.72838844E-05
  0.00000000E+00  0.00000000E+00  2.86538818E-01  1.42215349E-02 -1.21799059E-04
 -2.26431496E-04  0.00000000E+00 -2.93687811E-03  5.19577241E-04  1.23502508E-03
  0.00000000E+00 -2.79492687E-03 -2.74292829E-03 -2.79234481E-03 -3.72838844E-05
  0.00000000E+00  0.00000000E+00 -2.58451515E-04  9.64632923E-04 -1.29225757E-04
  4.82316462E-04  1.29225757E-04 -4.82316462E-04  2.58451515E-04 -9.64632923E-04
  1.29225757E-04 -4.82316462E-04 -1.29225757E-04  4.82316462E-04  0.00000000E+00
  0.00000000E+00 -2.96752215E-04  0.00000000E+00  0.00000000E+00  0.00000000E+00
  1.53500314E-03  0.00000000E+00  0.00000000E+00  0.00000000E+00  0.00000000E+00
  0.00000000E+00  5.15472516E-05  0.00000000E+00  0.00000000E+00  4.96299791E-01
  2.46324210E-02 -8.57900563E-05  1.21799059E-04  0.00000000E+00 -5.08682211E-03
  6.35068963E-04 -5.19577241E-04  0.00000000E+00 -4.76363446E-03 -4.82821204E-03
 -4.83648309E-03  1.30303305E-05  0.00000000E+00  0.00000000E+00  4.96299791E-01
  2.46324210E-02 -8.57900563E-05 -1.21799059E-04  0.00000000E+00 -5.08682211E-03
  6.35068963E-04  5.19577241E-04  0.00000000E+00 -4.76363446E-03 -4.82821204E-03
 -4.83648309E-03 -1.30303305E-05  0.00000000E+00  0.00000000E+00  0.00000000E+00
  0.00000000E+00 -2.96752215E-04  0.00000000E+00  0.00000000E+00  0.00000000E+00
  1.53500314E-03  0.00000000E+00  0.00000000E+00  0.00000000E+00  0.00000000E+00
  0.00000000E+00 -5.15472516E-05  0.00000000E+00  0.00000000E+00 -4.96299791E-01
 -2.46324210E-02 -8.57900563E-05  1.21799059E-04  0.00000000E+00  5.08682211E-03
  6.35068963E-04 -5.19577241E-04  0.00000000E+00  4.76363446E-03  4.82821204E-03
  4.83648309E-03 -1.30303305E-05  0.00000000E+00  0.00000000E+00 -4.96299791E-01
 -2.46324210E-02 -8.57900563E-05 -1.21799059E-04  0.00000000E+00  5.08682211E-03
  6.35068963E-04  5.19577241E-04  0.00000000E+00  4.76363446E-03  4.82821204E-03
  4.83648309E-03  1.30303305E-05  0.00000000E+00  0.00000000E+00  0.00000000E+00
  0.00000000E+00 -2.23825577E-04  8.35396617E-04 -2.23825577E-04  8.35396617E-04
  0.00000000E+00  0.00000000E+00  2.23825577E-04 -8.35396617E-04  2.23825577E-04
 -8.35396617E-04  0.00000000E+00  0.00000000E+00 -2.26412982E-04  0.00000000E+00
  0.00000000E+00  0.00000000E+00  1.44283540E-03  0.00000000E+00  0.00000000E+00
  0.00000000E+00  0.00000000E+00  0.00000000E+00  1.24247549E-04  0.00000000E+00
  0.00000000E+00  4.96482577E-01  2.50189558E-02 -1.16785535E-04 -1.98145756E-04
  0.00000000E+00 -9.86337264E-03  1.39157338E-03  1.63644667E-03  0.00000000E+00
 -4.55306311E-03 -4.37276897E-03 -4.72414817E-03 -5.60465930E-05  0.00000000E+00
  0.00000000E+00 -4.96482577E-01 -2.50189558E-02  1.16785535E-04 -1.98145756E-04
  0.00000000E+00  9.86337264E-03 -1.39157338E-03  1.63644667E-03  0.00000000E+00
  4.55306311E-03  4.37276897E-03  4.72414817E-03 -5.60465930E-05  0.00000000E+00
  0.00000000E+00  0.00000000E+00  0.00000000E+00  2.26412982E-04  0.00000000E+00
  0.00000000E+00  0.00000000E+00 -1.44283540E-03  0.00000000E+00  0.00000000E+00
  0.00000000E+00  0.00000000E+00  0.00000000E+00  1.24247549E-04  0.00000000E+00
  0.00000000E+00  4.96482577E-01  2.50189558E-02  1.16785535E-04  1.98145756E-04
  0.00000000E+00 -9.86337264E-03 -1.39157338E-03 -1.63644667E-03  0.00000000E+00
 -4.55306311E-03 -4.37276897E-03 -4.72414817E-03 -5.60465930E-05  0.00000000E+00
  0.00000000E+00 -4.96482577E-01 -2.50189558E-02 -1.16785535E-04  1.98145756E-04
  0.00000000E+00  9.86337264E-03  1.39157338E-03 -1.63644667E-03  0.00000000E+00
  4.55306311E-03  4.37276897E-03  4.72414817E-03 -5.60465930E-05  0.00000000E+00
  0.00000000E+00  0.00000000E+00  0.00000000E+00 -1.98499946E-04  6.06591171E-04
  1.98499946E-04 -6.06591171E-04  0.00000000E+00  0.00000000E+00 -1.98499946E-04
  6.06591171E-04  1.98499946E-04 -6.06591171E-04  5.73288699E-01  2.88894017E-02
  0.00000000E+00 -2.31185041E-04  0.00000000E+00 -1.13892417E-02  0.00000000E+00
  2.33637630E-03  0.00000000E+00 -5.05274734E-03 -5.25391576E-03 -5.45497643E-03
  0.00000000E+00  0.00000000E+00  0.00000000E+00 -2.86644350E-01 -1.44447009E-02
  1.98145756E-04 -1.12013476E-04  0.00000000E+00  5.69462085E-03 -1.63644667E-03
  4.98032473E-04  0.00000000E+00  2.52111068E-03  2.63222088E-03  2.72748822E-03
  1.04092871E-04  0.00000000E+00  0.00000000E+00 -2.86644350E-01 -1.44447009E-02
  1.98145756E-04  1.12013476E-04  0.00000000E+00  5.69462085E-03 -1.63644667E-03
 -4.98032473E-04  0.00000000E+00  2.52111068E-03  2.63222088E-03  2.72748822E-03
 -1.04092871E-04  0.00000000E+00  0.00000000E+00  5.73288699E-01  2.88894017E-02
  0.00000000E+00  2.31185041E-04  0.00000000E+00 -1.13892417E-02  0.00000000E+00
 -2.33637630E-03  0.00000000E+00 -5.05274734E-03 -5.25391576E-03 -5.45497643E-03
  0.00000000E+00  0.00000000E+00  0.00000000E+00 -2.86644350E-01 -1.44447009E-02
 -1.98145756E-04  1.12013476E-04  0.00000000E+00  5.69462085E-03  1.63644667E-03
 -4.98032473E-04  0.00000000E+00  2.52111068E-03  2.63222088E-03  2.72748822E-03
  1.04092871E-04  0.00000000E+00  0.00000000E+00 -2.86644350E-01 -1.44447009E-02
 -1.98145756E-04 -1.12013476E-04  0.00000000E+00  5.69462085E-03  1.63644667E-03
  4.98032473E-04  0.00000000E+00  2.52111068E-03  2.63222088E-03  2.72748822E-03
 -1.04092871E-04  0.00000000E+00  0.00000000E+00 -2.29207994E-04  7.00431152E-04
  1.14603997E-04 -3.50215576E-04  1.14603997E-04 -3.50215576E-04 -2.29207994E-04
  7.00431152E-04  1.14603997E-04 -3.50215576E-04  1.14603997E-04 -3.50215576E-04
  4.05553597E-01  2.10534777E-02  0.00000000E+00 -2.52002127E-04  0.00000000E+00
 -2.00302931E-02  0.00000000E+00  8.38174272E-03  0.00000000E+00 -3.34626702E-03
 -3.52278596E-03 -3.64078739E-03  0.00000000E+00  0.00000000E+00  0.00000000E+00
 -4.05553598E-01 -2.10534777E-02  2.18240243E-04  1.26001063E-04  0.00000000E+00
  2.00302931E-02 -7.25880212E-03 -4.19087136E-03  0.00000000E+00  3.47865623E-03
  3.39039676E-03  3.64078739E-03  8.82594691E-05  0.00000000E+00  0.00000000E+00
  4.05553598E-01  2.10534777E-02 -2.18240243E-04  1.26001063E-04  0.00000000E+00
 -2.00302931E-02  7.25880212E-03 -4.19087136E-03  0.00000000E+00 -3.47865623E-03