 Entering Link 1 = C:\G16W\l1.exe PID=      4964.
  
 Copyright (c) 1988,1990,1992,1993,1995,1998,2003,2009,2016,
            Gaussian, Inc.  All Rights Reserved.
  
 This is part of the Gaussian(R) 16 program.  It is based on
 the Gaussian(R) 09 system (copyright 2009, Gaussian, Inc.),
 the Gaussian(R) 03 system (copyright 2003, Gaussian, Inc.),
 the Gaussian(R) 98 system (copyright 1998, Gaussian, Inc.),
 the Gaussian(R) 94 system (copyright 1995, Gaussian, Inc.),
 the Gaussian 92(TM) system (copyright 1992, Gaussian, Inc.),
 the Gaussian 90(TM) system (copyright 1990, Gaussian, Inc.),
 the Gaussian 88(TM) system (copyright 1988, Gaussian, Inc.),
 the Gaussian 86(TM) system (copyright 1986, Carnegie Mellon
 University), and the Gaussian 82(TM) system (copyright 1983,
 Carnegie Mellon University). Gaussian is a federally registered
 trademark of Gaussian, Inc.
  
 This software contains proprietary and confidential information,
 including trade secrets, belonging to Gaussian, Inc.
  
 This software is provided under written license and may be
 used, copied, transmitted, or stored only in accord with that
 written license.
  
 The following legend is applicable only to US Government
 contracts under FAR:
  
                    RESTRICTED RIGHTS LEGEND
  
 Use, reproduction and disclosure by the US Government is
 subject to restrictions as set forth in subparagraphs (a)
 and (c) of the Commercial Computer Software - Restricted
 Rights clause in FAR 52.227-19.
  
 Gaussian, Inc.
 340 Quinnipiac St., Bldg. 40, Wallingford CT 06492
  
  
 ---------------------------------------------------------------
 Warning -- This program may not be used in any manner that
 competes with the business of Gaussian, Inc. or will provide
 assistance to any competitor of Gaussian, Inc.  The licensee
 of this program is prohibited from giving any competitor of
 Gaussian, Inc. access to this program.  By using this program,
 the user acknowledges that Gaussian, Inc. is engaged in the
 business of creating and licensing software in the field of
 computational chemistry and represents and warrants to the
 licensee that it is not a competitor of Gaussian, Inc. and that
 it will not use this program in any manner prohibited above.
 ---------------------------------------------------------------
  

 Cite this work as:
 Gaussian 16, Revision A.03,
 M. J. Frisch, G. W. Trucks, H. B. Schlegel, G. E. Scuseria, 
 M. A. Robb, J. R. Cheeseman, G. Scalmani, V. Barone, 
 G. A. Petersson, H. Nakatsuji, X. Li, M. Caricato, A. V. Marenich, 
 J. Bloino, B. G. Janesko, R. Gomperts, B. Mennucci, H. P. Hratchian, 
 J. V. Ortiz, A. F. Izmaylov, J. L. Sonnenberg, D. Williams-Young, 
 F. Ding, F. Lipparini, F. Egidi, J. Goings, B. Peng, A. Petrone, 
 T. Henderson, D. Ranasinghe, V. G. Zakrzewski, J. Gao, N. Rega, 
 G. Zheng, W. Liang, M. Hada, M. Ehara, K. Toyota, R. Fukuda, 
 J. Hasegawa, M. Ishida, T. Nakajima, Y. Honda, O. Kitao, H. Nakai, 
 T. Vreven, K. Throssell, J. A. Montgomery, Jr., J. E. Peralta, 
 F. Ogliaro, M. J. Bearpark, J. J. Heyd, E. N. Brothers, K. N. Kudin, 
 V. N. Staroverov, T. A. Keith, R. Kobayashi, J. Normand, 
 K. Raghavachari, A. P. Rendell, J. C. Burant, S. S. Iyengar, 
 J. Tomasi, M. Cossi, J. M. Millam, M. Klene, C. Adamo, R. Cammi, 
 J. W. Ochterski, R. L. Martin, K. Morokuma, O. Farkas, 
 J. B. Foresman, and D. J. Fox, Gaussian, Inc., Wallingford CT, 2016.
 
 ******************************************
 Gaussian 16:  IA32W-G16RevA.03 25-Dec-2016
                26-Mar-2025 
 ******************************************
 %chk=D:\gfile\pywfn\C6H6_N.chk
 ---------------------------------------------
 # b3lyp/6-31g(d) pop=full gfinput iop(3/33=1)
 ---------------------------------------------
 1/38=1,172=1/1;
 2/12=2,17=6,18=5,40=1/2;
 3/5=1,6=6,7=1,11=2,24=10,25=1,30=1,33=1,74=-5/1,2,3;
 4//1;
 5/5=2,38=5/2;
 6/7=3,28=1/1;
 99/5=1,9=1/99;
 -------------------
 Title Card Required
 -------------------
 Symbolic Z-matrix:
 Charge = -1 Multiplicity = 2
 C                     0.        1.4014    0. 
 C                     1.21365   0.7007    0. 
 C                     1.21365  -0.7007    0. 
 C                     0.       -1.4014    0. 
 C                    -1.21365  -0.7007    0. 
 C                    -1.21365   0.7007    0. 
 H                     0.        2.4714    0. 
 H                     2.1403    1.2357    0. 
 H                     2.1403   -1.2357    0. 
 H                     0.       -2.4714    0. 
 H                    -2.1403   -1.2357    0. 
 H                    -2.1403    1.2357    0. 
 
                          Input orientation:                          
 ---------------------------------------------------------------------
 Center     Atomic      Atomic             Coordinates (Angstroms)
 Number     Number       Type             X           Y           Z
 ---------------------------------------------------------------------
      1          6           0        0.000000    1.401400    0.000000
      2          6           0        1.213648    0.700700    0.000000
      3          6           0        1.213648   -0.700700    0.000000
      4          6           0        0.000000   -1.401400    0.000000
      5          6           0       -1.213648   -0.700700    0.000000
      6          6           0       -1.213648    0.700700    0.000000
      7          1           0        0.000000    2.471400    0.000000
      8          1           0        2.140295    1.235700    0.000000
      9          1           0        2.140295   -1.235700    0.000000
     10          1           0        0.000000   -2.471400    0.000000
     11          1           0       -2.140295   -1.235700    0.000000
     12          1           0       -2.140295    1.235700    0.000000
 ---------------------------------------------------------------------
                    Distance matrix (angstroms):
                    1          2          3          4          5
     1  C    0.000000
     2  C    1.401400   0.000000
     3  C    2.427296   1.401400   0.000000
     4  C    2.802800   2.427296   1.401400   0.000000
     5  C    2.427296   2.802800   2.427296   1.401400   0.000000
     6  C    1.401400   2.427296   2.802800   2.427296   1.401400
     7  H    1.070000   2.146700   3.396345   3.872800   3.396345
     8  H    2.146700   1.070000   2.146700   3.396345   3.872800
     9  H    3.396345   2.146700   1.070000   2.146700   3.396345
    10  H    3.872800   3.396345   2.146700   1.070000   2.146700
    11  H    3.396345   3.872800   3.396345   2.146700   1.070000
    12  H    2.146700   3.396345   3.872800   3.396345   2.146700
                    6          7          8          9         10
     6  C    0.000000
     7  H    2.146700   0.000000
     8  H    3.396345   2.471400   0.000000
     9  H    3.872800   4.280590   2.471400   0.000000
    10  H    3.396345   4.942800   4.280590   2.471400   0.000000
    11  H    2.146700   4.280590   4.942800   4.280590   2.471400
    12  H    1.070000   2.471400   4.280590   4.942800   4.280590
                   11         12
    11  H    0.000000
    12  H    2.471400   0.000000
 Stoichiometry    C6H6(1-,2)
 Framework group  D6H[3C2'(HC.CH)]
 Deg. of freedom     2
 Full point group                 D6H     NOp  24
 Largest Abelian subgroup         D2H     NOp   8
 Largest concise Abelian subgroup D2      NOp   4
                         Standard orientation:                         
 ---------------------------------------------------------------------
 Center     Atomic      Atomic             Coordinates (Angstroms)
 Number     Number       Type             X           Y           Z
 ---------------------------------------------------------------------
      1          6           0        0.000000    1.401400    0.000000
      2          6           0        1.213648    0.700700    0.000000
      3          6           0        1.213648   -0.700700    0.000000
      4          6           0        0.000000   -1.401400    0.000000
      5          6           0       -1.213648   -0.700700    0.000000
      6          6           0       -1.213648    0.700700    0.000000
      7          1           0        0.000000    2.471400    0.000000
      8          1           0        2.140295    1.235700    0.000000
      9          1           0        2.140295   -1.235700    0.000000
     10          1           0        0.000000   -2.471400    0.000000
     11          1           0       -2.140295   -1.235700    0.000000
     12          1           0       -2.140295    1.235700    0.000000
 ---------------------------------------------------------------------
 Rotational constants (GHZ):           5.6677156           5.6677156           2.8338578
 Standard basis: 6-31G(d) (6D, 7F)
                         Coordinates in L301:                         
 ---------------------------------------------------------------------
 Center     Atomic      Atomic             Coordinates (Angstroms)
 Number     Number       Type             X           Y           Z
 ---------------------------------------------------------------------
      1          6           0        0.000000    1.401400    0.000000
      2          6           0        1.213648    0.700700    0.000000
      3          6           0        1.213648   -0.700700    0.000000
      4          6           0        0.000000   -1.401400    0.000000
      5          6           0       -1.213648   -0.700700    0.000000
      6          6           0       -1.213648    0.700700    0.000000
      7          1           0        0.000000    2.471400    0.000000
      8          1           0        2.140295    1.235700    0.000000
      9          1           0        2.140295   -1.235700    0.000000
     10          1           0        0.000000   -2.471400    0.000000
     11          1           0       -2.140295   -1.235700    0.000000
     12          1           0       -2.140295    1.235700    0.000000
 ---------------------------------------------------------------------
 FixB: optimizing general contractions.
 Ernie: Thresh=  0.10000D-02 Tol=  0.10000D-05 Strict=F.
 IA=     1 ShT= 0 ShC= 0 NL=   1 NS=   0.
 IA=     1 L=0 SC=0 ISt=    0 NBk=    0 NP=    0 IndPr=    0.
 IA=     1 ShT= 1 ShC= 0 NL=   2 NS=   1.
 IA=     1 L=1 SC=0 ISt=    0 NBk=    0 NP=    0 IndPr=    0.
 IA=     1 ShT= 2 ShC= 2 NL=   1 NS=   1.
 IA=     1 L=2 SC=2 ISt=    0 NBk=    0 NP=    0 IndPr=    0.
 IA=     2 ShT= 0 ShC= 0 NL=   1 NS=   0.
 IA=     2 L=0 SC=0 ISt=    0 NBk=    0 NP=    0 IndPr=    0.
 IA=     2 ShT= 1 ShC= 0 NL=   2 NS=   1.
 IA=     2 L=1 SC=0 ISt=    0 NBk=    0 NP=    0 IndPr=    0.
 IA=     2 ShT= 2 ShC= 2 NL=   1 NS=   1.
 IA=     2 L=2 SC=2 ISt=    0 NBk=    0 NP=    0 IndPr=    0.
 IA=     3 ShT= 0 ShC= 0 NL=   1 NS=   0.
 IA=     3 L=0 SC=0 ISt=    0 NBk=    0 NP=    0 IndPr=    0.
 IA=     3 ShT= 1 ShC= 0 NL=   2 NS=   1.
 IA=     3 L=1 SC=0 ISt=    0 NBk=    0 NP=    0 IndPr=    0.
 IA=     3 ShT= 2 ShC= 2 NL=   1 NS=   1.
 IA=     3 L=2 SC=2 ISt=    0 NBk=    0 NP=    0 IndPr=    0.
 IA=     4 ShT= 0 ShC= 0 NL=   1 NS=   0.
 IA=     4 L=0 SC=0 ISt=    0 NBk=    0 NP=    0 IndPr=    0.
 IA=     4 ShT= 1 ShC= 0 NL=   2 NS=   1.
 IA=     4 L=1 SC=0 ISt=    0 NBk=    0 NP=    0 IndPr=    0.
 IA=     4 ShT= 2 ShC= 2 NL=   1 NS=   1.
 IA=     4 L=2 SC=2 ISt=    0 NBk=    0 NP=    0 IndPr=    0.
 IA=     5 ShT= 0 ShC= 0 NL=   1 NS=   0.
 IA=     5 L=0 SC=0 ISt=    0 NBk=    0 NP=    0 IndPr=    0.
 IA=     5 ShT= 1 ShC= 0 NL=   2 NS=   1.
 IA=     5 L=1 SC=0 ISt=    0 NBk=    0 NP=    0 IndPr=    0.
 IA=     5 ShT= 2 ShC= 2 NL=   1 NS=   1.
 IA=     5 L=2 SC=2 ISt=    0 NBk=    0 NP=    0 IndPr=    0.
 IA=     6 ShT= 0 ShC= 0 NL=   1 NS=   0.
 IA=     6 L=0 SC=0 ISt=    0 NBk=    0 NP=    0 IndPr=    0.
 IA=     6 ShT= 1 ShC= 0 NL=   2 NS=   1.
 IA=     6 L=1 SC=0 ISt=    0 NBk=    0 NP=    0 IndPr=    0.
 IA=     6 ShT= 2 ShC= 2 NL=   1 NS=   1.
 IA=     6 L=2 SC=2 ISt=    0 NBk=    0 NP=    0 IndPr=    0.
 IA=     7 ShT= 0 ShC= 0 NL=   2 NS=   1.
 IA=     7 L=0 SC=0 ISt=    0 NBk=    0 NP=    0 IndPr=    0.
 IA=     8 ShT= 0 ShC= 0 NL=   2 NS=   1.
 IA=     8 L=0 SC=0 ISt=    0 NBk=    0 NP=    0 IndPr=    0.
 IA=     9 ShT= 0 ShC= 0 NL=   2 NS=   1.
 IA=     9 L=0 SC=0 ISt=    0 NBk=    0 NP=    0 IndPr=    0.
 IA=    10 ShT= 0 ShC= 0 NL=   2 NS=   1.
 IA=    10 L=0 SC=0 ISt=    0 NBk=    0 NP=    0 IndPr=    0.
 IA=    11 ShT= 0 ShC= 0 NL=   2 NS=   1.
 IA=    11 L=0 SC=0 ISt=    0 NBk=    0 NP=    0 IndPr=    0.
 IA=    12 ShT= 0 ShC= 0 NL=   2 NS=   1.
 IA=    12 L=0 SC=0 ISt=    0 NBk=    0 NP=    0 IndPr=    0.
 AO basis set in the form of general basis input (Overlap normalization):
      1 0
 S   6 1.00       0.000000000000
      0.3047524880D+04  0.1834737132D-02
      0.4573695180D+03  0.1403732281D-01
      0.1039486850D+03  0.6884262226D-01
      0.2921015530D+02  0.2321844432D+00
      0.9286662960D+01  0.4679413484D+00
      0.3163926960D+01  0.3623119853D+00
 SP   3 1.00       0.000000000000
      0.7868272350D+01 -0.1193324198D+00  0.6899906659D-01
      0.1881288540D+01 -0.1608541517D+00  0.3164239610D+00
      0.5442492580D+00  0.1143456438D+01  0.7443082909D+00
 SP   1 1.00       0.000000000000
      0.1687144782D+00  0.1000000000D+01  0.1000000000D+01
 D   1 1.00       0.000000000000
      0.8000000000D+00  0.1000000000D+01
 ****
      2 0
 S   6 1.00       0.000000000000
      0.3047524880D+04  0.1834737132D-02
      0.4573695180D+03  0.1403732281D-01
      0.1039486850D+03  0.6884262226D-01
      0.2921015530D+02  0.2321844432D+00
      0.9286662960D+01  0.4679413484D+00
      0.3163926960D+01  0.3623119853D+00
 SP   3 1.00       0.000000000000
      0.7868272350D+01 -0.1193324198D+00  0.6899906659D-01
      0.1881288540D+01 -0.1608541517D+00  0.3164239610D+00
      0.5442492580D+00  0.1143456438D+01  0.7443082909D+00
 SP   1 1.00       0.000000000000
      0.1687144782D+00  0.1000000000D+01  0.1000000000D+01
 D   1 1.00       0.000000000000
      0.8000000000D+00  0.1000000000D+01
 ****
      3 0
 S   6 1.00       0.000000000000
      0.3047524880D+04  0.1834737132D-02
      0.4573695180D+03  0.1403732281D-01
      0.1039486850D+03  0.6884262226D-01
      0.2921015530D+02  0.2321844432D+00
      0.9286662960D+01  0.4679413484D+00
      0.3163926960D+01  0.3623119853D+00
 SP   3 1.00       0.000000000000
      0.7868272350D+01 -0.1193324198D+00  0.6899906659D-01
      0.1881288540D+01 -0.1608541517D+00  0.3164239610D+00
      0.5442492580D+00  0.1143456438D+01  0.7443082909D+00
 SP   1 1.00       0.000000000000
      0.1687144782D+00  0.1000000000D+01  0.1000000000D+01
 D   1 1.00       0.000000000000
      0.8000000000D+00  0.1000000000D+01
 ****
      4 0
 S   6 1.00       0.000000000000
      0.3047524880D+04  0.1834737132D-02
      0.4573695180D+03  0.1403732281D-01
      0.1039486850D+03  0.6884262226D-01
      0.2921015530D+02  0.2321844432D+00
      0.9286662960D+01  0.4679413484D+00
      0.3163926960D+01  0.3623119853D+00
 SP   3 1.00       0.000000000000
      0.7868272350D+01 -0.1193324198D+00  0.6899906659D-01
      0.1881288540D+01 -0.1608541517D+00  0.3164239610D+00
      0.5442492580D+00  0.1143456438D+01  0.7443082909D+00
 SP   1 1.00       0.000000000000
      0.1687144782D+00  0.1000000000D+01  0.1000000000D+01
 D   1 1.00       0.000000000000
      0.8000000000D+00  0.1000000000D+01
 ****
      5 0
 S   6 1.00       0.000000000000
      0.3047524880D+04  0.1834737132D-02
      0.4573695180D+03  0.1403732281D-01
      0.1039486850D+03  0.6884262226D-01
      0.2921015530D+02  0.2321844432D+00
      0.9286662960D+01  0.4679413484D+00
      0.3163926960D+01  0.3623119853D+00
 SP   3 1.00       0.000000000000
      0.7868272350D+01 -0.1193324198D+00  0.6899906659D-01
      0.1881288540D+01 -0.1608541517D+00  0.3164239610D+00
      0.5442492580D+00  0.1143456438D+01  0.7443082909D+00
 SP   1 1.00       0.000000000000
      0.1687144782D+00  0.1000000000D+01  0.1000000000D+01
 D   1 1.00       0.000000000000
      0.8000000000D+00  0.1000000000D+01
 ****
      6 0
 S   6 1.00       0.000000000000
      0.3047524880D+04  0.1834737132D-02
      0.4573695180D+03  0.1403732281D-01
      0.1039486850D+03  0.6884262226D-01
      0.2921015530D+02  0.2321844432D+00
      0.9286662960D+01  0.4679413484D+00
      0.3163926960D+01  0.3623119853D+00
 SP   3 1.00       0.000000000000
      0.7868272350D+01 -0.1193324198D+00  0.6899906659D-01
      0.1881288540D+01 -0.1608541517D+00  0.3164239610D+00
      0.5442492580D+00  0.1143456438D+01  0.7443082909D+00
 SP   1 1.00       0.000000000000
      0.1687144782D+00  0.1000000000D+01  0.1000000000D+01
 D   1 1.00       0.000000000000
      0.8000000000D+00  0.1000000000D+01
 ****
      7 0
 S   3 1.00       0.000000000000
      0.1873113696D+02  0.3349460434D-01
      0.2825394365D+01  0.2347269535D+00
      0.6401216923D+00  0.8137573261D+00
 S   1 1.00       0.000000000000
      0.1612777588D+00  0.1000000000D+01
 ****
      8 0
 S   3 1.00       0.000000000000
      0.1873113696D+02  0.3349460434D-01
      0.2825394365D+01  0.2347269535D+00
      0.6401216923D+00  0.8137573261D+00
 S   1 1.00       0.000000000000
      0.1612777588D+00  0.1000000000D+01
 ****
      9 0
 S   3 1.00       0.000000000000
      0.1873113696D+02  0.3349460434D-01
      0.2825394365D+01  0.2347269535D+00
      0.6401216923D+00  0.8137573261D+00
 S   1 1.00       0.000000000000
      0.1612777588D+00  0.1000000000D+01
 ****
     10 0
 S   3 1.00       0.000000000000
      0.1873113696D+02  0.3349460434D-01
      0.2825394365D+01  0.2347269535D+00
      0.6401216923D+00  0.8137573261D+00
 S   1 1.00       0.000000000000
      0.1612777588D+00  0.1000000000D+01
 ****
     11 0
 S   3 1.00       0.000000000000
      0.1873113696D+02  0.3349460434D-01
      0.2825394365D+01  0.2347269535D+00
      0.6401216923D+00  0.8137573261D+00
 S   1 1.00       0.000000000000
      0.1612777588D+00  0.1000000000D+01
 ****
     12 0
 S   3 1.00       0.000000000000
      0.1873113696D+02  0.3349460434D-01
      0.2825394365D+01  0.2347269535D+00
      0.6401216923D+00  0.8137573261D+00
 S   1 1.00       0.000000000000
      0.1612777588D+00  0.1000000000D+01
 ****

 LdAtmC:  AtmChg=     6.000000     6.000000     6.000000     6.000000     6.000000
 LdAtmC:  AtmChg=     6.000000     1.000000     1.000000     1.000000     1.000000
 LdAtmC:  AtmChg=     1.000000     1.000000
 AtZEff=     -3.6000000     -3.6000000     -3.6000000     -3.6000000     -3.6000000
 AtZEff=     -3.6000000     -1.0000000     -1.0000000     -1.0000000     -1.0000000
 AtZEff=     -1.0000000     -1.0000000
 NEqShl: 
              1            2            3            4            5
     1            1           13            1           13            1
     2            2           14            2           14            2
     3            3           15            3           15            3
     4            4           16            4           16            4
     5            5           17           21            9           21
     6            6           18           22           10           22
     7            7           19           23           11           23
     8            8           20           24           12           24
     9            9           21           17            5           17
    10           10           22           18            6           18
    11           11           23           19            7           19
    12           12           24           20            8           20
    13           13            1           13            1           13
    14           14            2           14            2           14
    15           15            3           15            3           15
    16           16            4           16            4           16
    17           17            5            9           21            9
    18           18            6           10           22           10
    19           19            7           11           23           11
    20           20            8           12           24           12
    21           21            9            5           17            5
    22           22           10            6           18            6
    23           23           11            7           19            7
    24           24           12            8           20            8
    25           25           31           25           31           25
    26           26           32           26           32           26
    27           27           33           35           29           35
    28           28           34           36           30           36
    29           29           35           33           27           33
    30           30           36           34           28           34
    31           31           25           31           25           31
    32           32           26           32           26           32
    33           33           27           29           35           29
    34           34           28           30           36           30
    35           35           29           27           33           27
    36           36           30           28           34           28
              6            7            8            9           10
     1           13            1           13            5            9
     2           14            2           14            6           10
     3           15            3           15            7           11
     4           16            4           16            8           12
     5            9            5           17            9           13
     6           10            6           18           10           14
     7           11            7           19           11           15
     8           12            8           20           12           16
     9            5            9           21           13           17
    10            6           10           22           14           18
    11            7           11           23           15           19
    12            8           12           24           16           20
    13            1           13            1           17           21
    14            2           14            2           18           22
    15            3           15            3           19           23
    16            4           16            4           20           24
    17           21           17            5           21            1
    18           22           18            6           22            2
    19           23           19            7           23            3
    20           24           20            8           24            4
    21           17           21            9            1            5
    22           18           22           10            2            6
    23           19           23           11            3            7
    24           20           24           12            4            8
    25           31           25           31           27           29
    26           32           26           32           28           30
    27           29           27           33           29           31
    28           30           28           34           30           32
    29           27           29           35           31           33
    30           28           30           36           32           34
    31           25           31           25           33           35
    32           26           32           26           34           36
    33           35           33           27           35           25
    34           36           34           28           36           26
    35           33           35           29           25           27
    36           34           36           30           26           28
             11           12           13           14           15
     1           17           21           21           17            9
     2           18           22           22           18           10
     3           19           23           23           19           11
     4           20           24           24           20           12
     5           21            1           17           13            5
     6           22            2           18           14            6
     7           23            3           19           15            7
     8           24            4           20           16            8
     9            1            5           13            9            1
    10            2            6           14           10            2
    11            3            7           15           11            3
    12            4            8           16           12            4
    13            5            9            9            5           21
    14            6           10           10            6           22
    15            7           11           11            7           23
    16            8           12           12            8           24
    17            9           13            5            1           17
    18           10           14            6            2           18
    19           11           15            7            3           19
    20           12           16            8            4           20
    21           13           17            1           21           13
    22           14           18            2           22           14
    23           15           19            3           23           15
    24           16           20            4           24           16
    25           33           35           35           33           29
    26           34           36           36           34           30
    27           35           25           33           31           27
    28           36           26           34           32           28
    29           25           27           31           29           25
    30           26           28           32           30           26
    31           27           29           29           27           35
    32           28           30           30           28           36
    33           29           31           27           25           33
    34           30           32           28           26           34
    35           31           33           25           35           31
    36           32           34           26           36           32
             16           17           18           19           20
     1            5           21           17            9            5
     2            6           22           18           10            6
     3            7           23           19           11            7
     4            8           24           20           12            8
     5            1           17           13            5            1
     6            2           18           14            6            2
     7            3           19           15            7            3
     8            4           20           16            8            4
     9           21           13            9            1           21
    10           22           14           10            2           22
    11           23           15           11            3           23
    12           24           16           12            4           24
    13           17            9            5           21           17
    14           18           10            6           22           18
    15           19           11            7           23           19
    16           20           12            8           24           20
    17           13            5            1           17           13
    18           14            6            2           18           14
    19           15            7            3           19           15
    20           16            8            4           20           16
    21            9            1           21           13            9
    22           10            2           22           14           10
    23           11            3           23           15           11
    24           12            4           24           16           12
    25           27           35           33           29           27
    26           28           36           34           30           28
    27           25           33           31           27           25
    28           26           34           32           28           26
    29           35           31           29           25           35
    30           36           32           30           26           36
    31           33           29           27           35           33
    32           34           30           28           36           34
    33           31           27           25           33           31
    34           32           28           26           34           32
    35           29           25           35           31           29
    36           30           26           36           32           30
             21           22           23           24
     1            5            9           17           21
     2            6           10           18           22
     3            7           11           19           23
     4            8           12           20           24
     5            9           13           21            1
     6           10           14           22            2
     7           11           15           23            3
     8           12           16           24            4
     9           13           17            1            5
    10           14           18            2            6
    11           15           19            3            7
    12           16           20            4            8
    13           17           21            5            9
    14           18           22            6           10
    15           19           23            7           11
    16           20           24            8           12
    17           21            1            9           13
    18           22            2           10           14
    19           23            3           11           15
    20           24            4           12           16
    21            1            5           13           17
    22            2            6           14           18
    23            3            7           15           19
    24            4            8           16           20
    25           27           29           33           35
    26           28           30           34           36
    27           29           31           35           25
    28           30           32           36           26
    29           31           33           25           27
    30           32           34           26           28
    31           33           35           27           29
    32           34           36           28           30
    33           35           25           29           31
    34           36           26           30           32
    35           25           27           31           33
    36           26           28           32           34
 NEqBas: 
              1            2            3            4            5
     1            1           46            1           46            1
     2            2           47            2           47            2
     3            3          -48           -3           48           -3
     4            4          -49            4          -49            4
     5            5           50           -5          -50            5
     6            6           51            6           51            6
     7            7          -52           -7           52           -7
     8            8          -53            8          -53            8
     9            9           54           -9          -54            9
    10           10           55           10           55           10
    11           11           56           11           56           11
    12           12           57           12           57           12
    13           13           58          -13          -58          -13
    14           14          -59           14          -59          -14
    15           15          -60          -15           60           15
    16           16           61           76           31           76
    17           17           62           77           32           77
    18           18          -63          -78           33          -78
    19           19          -64           79          -34           79
    20           20           65          -80          -35           80
    21           21           66           81           36           81
    22           22          -67          -82           37          -82
    23           23          -68           83          -38           83
    24           24           69          -84          -39           84
    25           25           70           85           40           85
    26           26           71           86           41           86
    27           27           72           87           42           87
    28           28           73          -88          -43          -88
    29           29          -74           89          -44          -89
    30           30          -75          -90           45           90
    31           31           76           61           16           61
    32           32           77           62           17           62
    33           33          -78          -63           18          -63
    34           34          -79           64          -19           64
    35           35           80          -65          -20           65
    36           36           81           66           21           66
    37           37          -82          -67           22          -67
    38           38          -83           68          -23           68
    39           39           84          -69          -24           69
    40           40           85           70           25           70
    41           41           86           71           26           71
    42           42           87           72           27           72
    43           43           88          -73          -28          -73
    44           44          -89           74          -29          -74
    45           45          -90          -75           30           75
    46           46            1           46            1           46
    47           47            2           47            2           47
    48           48           -3          -48            3          -48
    49           49           -4           49           -4           49
    50           50            5          -50           -5           50
    51           51            6           51            6           51
    52           52           -7          -52            7          -52
    53           53           -8           53           -8           53
    54           54            9          -54           -9           54
    55           55           10           55           10           55
    56           56           11           56           11           56
    57           57           12           57           12           57
    58           58           13          -58          -13          -58
    59           59          -14           59          -14          -59
    60           60          -15          -60           15           60
    61           61           16           31           76           31
    62           62           17           32           77           32
    63           63          -18          -33           78          -33
    64           64          -19           34          -79           34
    65           65           20          -35          -80           35
    66           66           21           36           81           36
    67           67          -22          -37           82          -37
    68           68          -23           38          -83           38
    69           69           24          -39          -84           39
    70           70           25           40           85           40
    71           71           26           41           86           41
    72           72           27           42           87           42
    73           73           28          -43          -88          -43
    74           74          -29           44          -89          -44
    75           75          -30          -45           90           45
    76           76           31           16           61           16
    77           77           32           17           62           17
    78           78          -33          -18           63          -18
    79           79          -34           19          -64           19
    80           80           35          -20          -65           20
    81           81           36           21           66           21
    82           82          -37          -22           67          -22
    83           83          -38           23          -68           23
    84           84           39          -24          -69           24
    85           85           40           25           70           25
    86           86           41           26           71           26
    87           87           42           27           72           27
    88           88           43          -28          -73          -28
    89           89          -44           29          -74          -29
    90           90          -45          -30           75           30
    91           91           97           91           97           91
    92           92           98           92           98           92
    93           93           99          101           95          101
    94           94          100          102           96          102
    95           95          101           99           93           99
    96           96          102          100           94          100
    97           97           91           97           91           97
    98           98           92           98           92           98
    99           99           93           95          101           95
   100          100           94           96          102           96
   101          101           95           93           99           93
   102          102           96           94          100           94
              6            7            8
     1           46            1           46
     2           47            2           47
     3           48            3          -48
     4          -49            4          -49
     5           50           -5          -50
     6           51            6           51
     7           52            7          -52
     8          -53            8          -53
     9           54           -9          -54
    10           55           10           55
    11           56           11           56
    12           57           12           57
    13          -58           13           58
    14           59          -14           59
    15          -60          -15           60
    16           31           16           61
    17           32           17           62
    18           33           18          -63
    19          -34           19          -64
    20           35          -20          -65
    21           36           21           66
    22           37           22          -67
    23          -38           23          -68
    24           39          -24          -69
    25           40           25           70
    26           41           26           71
    27           42           27           72
    28          -43           28           73
    29           44          -29           74
    30          -45          -30           75
    31           16           31           76
    32           17           32           77
    33           18           33          -78
    34          -19           34          -79
    35           20          -35          -80
    36           21           36           81
    37           22           37          -82
    38          -23           38          -83
    39           24          -39          -84
    40           25           40           85
    41           26           41           86
    42           27           42           87
    43          -28           43           88
    44           29          -44           89
    45          -30          -45           90
    46            1           46            1
    47            2           47            2
    48            3           48           -3
    49           -4           49           -4
    50            5          -50           -5
    51            6           51            6
    52            7           52           -7
    53           -8           53           -8
    54            9          -54           -9
    55           10           55           10
    56           11           56           11
    57           12           57           12
    58          -13           58           13
    59           14          -59           14
    60          -15          -60           15
    61           76           61           16
    62           77           62           17
    63           78           63          -18
    64          -79           64          -19
    65           80          -65          -20
    66           81           66           21
    67           82           67          -22
    68          -83           68          -23
    69           84          -69          -24
    70           85           70           25
    71           86           71           26
    72           87           72           27
    73          -88           73           28
    74           89          -74           29
    75          -90          -75           30
    76           61           76           31
    77           62           77           32
    78           63           78          -33
    79          -64           79          -34
    80           65          -80          -35
    81           66           81           36
    82           67           82          -37
    83          -68           83          -38
    84           69          -84          -39
    85           70           85           40
    86           71           86           41
    87           72           87           42
    88          -73           88           43
    89           74          -89           44
    90          -75          -90           45
    91           97           91           97
    92           98           92           98
    93           95           93           99
    94           96           94          100
    95           93           95          101
    96           94           96          102
    97           91           97           91
    98           92           98           92
    99          101           99           93
   100          102          100           94
   101           99          101           95
   102          100          102           96
 There are    23 symmetry adapted cartesian basis functions of AG  symmetry.
   1         1  46   1  46  46   1  46   1
   2         2  47   2  47  47   2  47   2
   3         4 -49   4 -49 -49   4 -49   4
   4         6  51   6  51  51   6  51   6
   5         8 -53   8 -53 -53   8 -53   8
   6        10  55  10  55  55  10  55  10
   7        11  56  11  56  56  11  56  11
   8        12  57  12  57  57  12  57  12
   9        16  61  76  31  61  16  31  76
  10        17  62  77  32  62  17  32  77
  11        18 -63 -78  33 -63  18  33 -78
  12        19 -64  79 -34 -64  19 -34  79
  13        21  66  81  36  66  21  36  81
  14        22 -67 -82  37 -67  22  37 -82
  15        23 -68  83 -38 -68  23 -38  83
  16        25  70  85  40  70  25  40  85
  17        26  71  86  41  71  26  41  86
  18        27  72  87  42  72  27  42  87
  19        28  73 -88 -43  73  28 -43 -88
  20        91  97  91  97  97  91  97  91
  21        92  98  92  98  98  92  98  92
  22        93  99 101  95  99  93  95 101
  23        94 100 102  96 100  94  96 102
 There are    16 symmetry adapted cartesian basis functions of B1G symmetry.
  24         3 -48   3 -48 -48   3 -48   3
  25         7 -52   7 -52 -52   7 -52   7
  26        13  58  13  58  58  13  58  13
  27        16  61 -76 -31  61  16 -31 -76
  28        17  62 -77 -32  62  17 -32 -77
  29        18 -63  78 -33 -63  18 -33  78
  30        19 -64 -79  34 -64  19  34 -79
  31        21  66 -81 -36  66  21 -36 -81
  32        22 -67  82 -37 -67  22 -37  82
  33        23 -68 -83  38 -68  23  38 -83
  34        25  70 -85 -40  70  25 -40 -85
  35        26  71 -86 -41  71  26 -41 -86
  36        27  72 -87 -42  72  27 -42 -87
  37        28  73  88  43  73  28  43  88
  38        93  99-101 -95  99  93 -95-101
  39        94 100-102 -96 100  94 -96-102
 There are     5 symmetry adapted cartesian basis functions of B2G symmetry.
  40        14  59  14  59  59  14  59  14
  41        20 -65 -80  35 -65  20  35 -80
  42        24 -69 -84  39 -69  24  39 -84
  43        29  74  89  44  74  29  44  89
  44        30  75 -90 -45  75  30 -45 -90
 There are     7 symmetry adapted cartesian basis functions of B3G symmetry.
  45         5 -50   5 -50 -50   5 -50   5
  46         9 -54   9 -54 -54   9 -54   9
  47        15  60  15  60  60  15  60  15
  48        20 -65  80 -35 -65  20 -35  80
  49        24 -69  84 -39 -69  24 -39  84
  50        29  74 -89 -44  74  29 -44 -89
  51        30  75  90  45  75  30  45  90
 There are     5 symmetry adapted cartesian basis functions of AU  symmetry.
  52        14 -59  14 -59 -59  14 -59  14
  53        20  65 -80 -35  65  20 -35 -80
  54        24  69 -84 -39  69  24 -39 -84
  55        29 -74  89 -44 -74  29 -44  89
  56        30 -75 -90  45 -75  30  45 -90
 There are     7 symmetry adapted cartesian basis functions of B1U symmetry.
  57         5  50   5  50  50   5  50   5
  58         9  54   9  54  54   9  54   9
  59        15 -60  15 -60 -60  15 -60  15
  60        20  65  80  35  65  20  35  80
  61        24  69  84  39  69  24  39  84
  62        29 -74 -89  44 -74  29  44 -89
  63        30 -75  90 -45 -75  30 -45  90
 There are    23 symmetry adapted cartesian basis functions of B2U symmetry.
  64         1 -46   1 -46 -46   1 -46   1
  65         2 -47   2 -47 -47   2 -47   2
  66         4  49   4  49  49   4  49   4
  67         6 -51   6 -51 -51   6 -51   6
  68         8  53   8  53  53   8  53   8
  69        10 -55  10 -55 -55  10 -55  10
  70        11 -56  11 -56 -56  11 -56  11
  71        12 -57  12 -57 -57  12 -57  12
  72        16 -61  76 -31 -61  16 -31  76
  73        17 -62  77 -32 -62  17 -32  77
  74        18  63 -78 -33  63  18 -33 -78
  75        19  64  79  34  64  19  34  79
  76        21 -66  81 -36 -66  21 -36  81
  77        22  67 -82 -37  67  22 -37 -82
  78        23  68  83  38  68  23  38  83
  79        25 -70  85 -40 -70  25 -40  85
  80        26 -71  86 -41 -71  26 -41  86
  81        27 -72  87 -42 -72  27 -42  87
  82        28 -73 -88  43 -73  28  43 -88
  83        91 -97  91 -97 -97  91 -97  91
  84        92 -98  92 -98 -98  92 -98  92
  85        93 -99 101 -95 -99  93 -95 101
  86        94-100 102 -96-100  94 -96 102
 There are    16 symmetry adapted cartesian basis functions of B3U symmetry.
  87         3  48   3  48  48   3  48   3
  88         7  52   7  52  52   7  52   7
  89        13 -58  13 -58 -58  13 -58  13
  90        16 -61 -76  31 -61  16  31 -76
  91        17 -62 -77  32 -62  17  32 -77
  92        18  63  78  33  63  18  33  78
  93        19  64 -79 -34  64  19 -34 -79
  94        21 -66 -81  36 -66  21  36 -81
  95        22  67  82  37  67  22  37  82
  96        23  68 -83 -38  68  23 -38 -83
  97        25 -70 -85  40 -70  25  40 -85
  98        26 -71 -86  41 -71  26  41 -86
  99        27 -72 -87  42 -72  27  42 -87
 100        28 -73  88 -43 -73  28 -43  88
 101        93 -99-101  95 -99  93  95-101
 102        94-100-102  96-100  94  96-102
 Order= 1 2 3 4 8 7 6 5
 Reordered character table:
              1            2            3            4            5
     1            1            1            1            1            1
     2            2            1            1           -1           -1
     3            3            1           -1            1           -1
     4            4            1           -1           -1            1
     5            8            1           -1           -1            1
     6            7            1           -1            1           -1
     7            6            1            1           -1           -1
     8            5            1            1            1            1
              6            7            8            9
     1            1            1            1            1
     2            1            1           -1           -1
     3            1           -1            1           -1
     4            1           -1           -1            1
     5           -1            1            1           -1
     6           -1            1           -1            1
     7           -1           -1            1            1
     8           -1           -1           -1           -1
 NEqShl: 
              1            2            3            4            5
     1            1           13            1           13            1
     2            2           14            2           14            2
     3            3           15            3           15            3
     4            4           16            4           16            4
     5            5           17           21            9           21
     6            6           18           22           10           22
     7            7           19           23           11           23
     8            8           20           24           12           24
     9            9           21           17            5           17
    10           10           22           18            6           18
    11           11           23           19            7           19
    12           12           24           20            8           20
    13           13            1           13            1           13
    14           14            2           14            2           14
    15           15            3           15            3           15
    16           16            4           16            4           16
    17           17            5            9           21            9
    18           18            6           10           22           10
    19           19            7           11           23           11
    20           20            8           12           24           12
    21           21            9            5           17            5
    22           22           10            6           18            6
    23           23           11            7           19            7
    24           24           12            8           20            8
    25           25           31           25           31           25
    26           26           32           26           32           26
    27           27           33           35           29           35
    28           28           34           36           30           36
    29           29           35           33           27           33
    30           30           36           34           28           34
    31           31           25           31           25           31
    32           32           26           32           26           32
    33           33           27           29           35           29
    34           34           28           30           36           30
    35           35           29           27           33           27
    36           36           30           28           34           28
              6            7            8            9           10
     1           13            1           13            5            9
     2           14            2           14            6           10
     3           15            3           15            7           11
     4           16            4           16            8           12
     5            9            5           17            9           13
     6           10            6           18           10           14
     7           11            7           19           11           15
     8           12            8           20           12           16
     9            5            9           21           13           17
    10            6           10           22           14           18
    11            7           11           23           15           19
    12            8           12           24           16           20
    13            1           13            1           17           21
    14            2           14            2           18           22
    15            3           15            3           19           23
    16            4           16            4           20           24
    17           21           17            5           21            1
    18           22           18            6           22            2
    19           23           19            7           23            3
    20           24           20            8           24            4
    21           17           21            9            1            5
    22           18           22           10            2            6
    23           19           23           11            3            7
    24           20           24           12            4            8
    25           31           25           31           27           29
    26           32           26           32           28           30
    27           29           27           33           29           31
    28           30           28           34           30           32
    29           27           29           35           31           33
    30           28           30           36           32           34
    31           25           31           25           33           35
    32           26           32           26           34           36
    33           35           33           27           35           25
    34           36           34           28           36           26
    35           33           35           29           25           27
    36           34           36           30           26           28
             11           12           13           14           15
     1           17           21           21           17            9
     2           18           22           22           18           10
     3           19           23           23           19           11
     4           20           24           24           20           12
     5           21            1           17           13            5
     6           22            2           18           14            6
     7           23            3           19           15            7
     8           24            4           20           16            8
     9            1            5           13            9            1
    10            2            6           14           10            2
    11            3            7           15           11            3
    12            4            8           16           12            4
    13            5            9            9            5           21
    14            6           10           10            6           22
    15            7           11           11            7           23
    16            8           12           12            8           24
    17            9           13            5            1           17
    18           10           14            6            2           18
    19           11           15            7            3           19
    20           12           16            8            4           20
    21           13           17            1           21           13
    22           14           18            2           22           14
    23           15           19            3           23           15
    24           16           20            4           24           16
    25           33           35           35           33           29
    26           34           36           36           34           30
    27           35           25           33           31           27
    28           36           26           34           32           28
    29           25           27           31           29           25
    30           26           28           32           30           26
    31           27           29           29           27           35
    32           28           30           30           28           36
    33           29           31           27           25           33
    34           30           32           28           26           34
    35           31           33           25           35           31
    36           32           34           26           36           32
             16           17           18           19           20
     1            5           21           17            9            5
     2            6           22           18           10            6
     3            7           23           19           11            7
     4            8           24           20           12            8
     5            1           17           13            5            1
     6            2           18           14            6            2
     7            3           19           15            7            3
     8            4           20           16            8            4
     9           21           13            9            1           21
    10           22           14           10            2           22
    11           23           15           11            3           23
    12           24           16           12            4           24
    13           17            9            5           21           17
    14           18           10            6           22           18
    15           19           11            7           23           19
    16           20           12            8           24           20
    17           13            5            1           17           13
    18           14            6            2           18           14
    19           15            7            3           19           15
    20           16            8            4           20           16
    21            9            1           21           13            9
    22           10            2           22           14           10
    23           11            3           23           15           11
    24           12            4           24           16           12
    25           27           35           33           29           27
    26           28           36           34           30           28
    27           25           33           31           27           25
    28           26           34           32           28           26
    29           35           31           29           25           35
    30           36           32           30           26           36
    31           33           29           27           35           33
    32           34           30           28           36           34
    33           31           27           25           33           31
    34           32           28           26           34           32
    35           29           25           35           31           29
    36           30           26           36           32           30
             21           22           23           24
     1            5            9           17           21
     2            6           10           18           22
     3            7           11           19           23
     4            8           12           20           24
     5            9           13           21            1
     6           10           14           22            2
     7           11           15           23            3
     8           12           16           24            4
     9           13           17            1            5
    10           14           18            2            6
    11           15           19            3            7
    12           16           20            4            8
    13           17           21            5            9
    14           18           22            6           10
    15           19           23            7           11
    16           20           24            8           12
    17           21            1            9           13
    18           22            2           10           14
    19           23            3           11           15
    20           24            4           12           16
    21            1            5           13           17
    22            2            6           14           18
    23            3            7           15           19
    24            4            8           16           20
    25           27           29           33           35
    26           28           30           34           36
    27           29           31           35           25
    28           30           32           36           26
    29           31           33           25           27
    30           32           34           26           28
    31           33           35           27           29
    32           34           36           28           30
    33           35           25           29           31
    34           36           26           30           32
    35           25           27           31           33
    36           26           28           32           34
 NEqBas: 
              1            2            3            4            5
     1            1           46            1           46            1
     2            2           47            2           47            2
     3            3          -48           -3           48           -3
     4            4          -49            4          -49            4
     5            5           50           -5          -50            5
     6            6           51            6           51            6
     7            7          -52           -7           52           -7
     8            8          -53            8          -53            8
     9            9           54           -9          -54            9
    10           10           55           10           55           10
    11           11           56           11           56           11
    12           12           57           12           57           12
    13           13           58          -13          -58          -13
    14           14          -59           14          -59          -14
    15           15          -60          -15           60           15
    16           16           61           76           31           76
    17           17           62           77           32           77
    18           18          -63          -78           33          -78
    19           19          -64           79          -34           79
    20           20           65          -80          -35           80
    21           21           66           81           36           81
    22           22          -67          -82           37          -82
    23           23          -68           83          -38           83
    24           24           69          -84          -39           84
    25           25           70           85           40           85
    26           26           71           86           41           86
    27           27           72           87           42           87
    28           28           73          -88          -43          -88
    29           29          -74           89          -44          -89
    30           30          -75          -90           45           90
    31           31           76           61           16           61
    32           32           77           62           17           62
    33           33          -78          -63           18          -63
    34           34          -79           64          -19           64
    35           35           80          -65          -20           65
    36           36           81           66           21           66
    37           37          -82          -67           22          -67
    38           38          -83           68          -23           68
    39           39           84          -69          -24           69
    40           40           85           70           25           70
    41           41           86           71           26           71
    42           42           87           72           27           72
    43           43           88          -73          -28          -73
    44           44          -89           74          -29          -74
    45           45          -90          -75           30           75
    46           46            1           46            1           46
    47           47            2           47            2           47
    48           48           -3          -48            3          -48
    49           49           -4           49           -4           49
    50           50            5          -50           -5           50
    51           51            6           51            6           51
    52           52           -7          -52            7          -52
    53           53           -8           53           -8           53
    54           54            9          -54           -9           54
    55           55           10           55           10           55
    56           56           11           56           11           56
    57           57           12           57           12           57
    58           58           13          -58          -13          -58
    59           59          -14           59          -14          -59
    60           60          -15          -60           15           60
    61           61           16           31           76           31
    62           62           17           32           77           32
    63           63          -18          -33           78          -33
    64           64          -19           34          -79           34
    65           65           20          -35          -80           35
    66           66           21           36           81           36
    67           67          -22          -37           82          -37
    68           68          -23           38          -83           38
    69           69           24          -39          -84           39
    70           70           25           40           85           40
    71           71           26           41           86           41
    72           72           27           42           87           42
    73           73           28          -43          -88          -43
    74           74          -29           44          -89          -44
    75           75          -30          -45           90           45
    76           76           31           16           61           16
    77           77           32           17           62           17
    78           78          -33          -18           63          -18
    79           79          -34           19          -64           19
    80           80           35          -20          -65           20
    81           81           36           21           66           21
    82           82          -37          -22           67          -22
    83           83          -38           23          -68           23
    84           84           39          -24          -69           24
    85           85           40           25           70           25
    86           86           41           26           71           26
    87           87           42           27           72           27
    88           88           43          -28          -73          -28
    89           89          -44           29          -74          -29
    90           90          -45          -30           75           30
    91           91           97           91           97           91
    92           92           98           92           98           92
    93           93           99          101           95          101
    94           94          100          102           96          102
    95           95          101           99           93           99
    96           96          102          100           94          100
    97           97           91           97           91           97
    98           98           92           98           92           98
    99           99           93           95          101           95
   100          100           94           96          102           96
   101          101           95           93           99           93
   102          102           96           94          100           94
              6            7            8
     1           46            1           46
     2           47            2           47
     3           48            3          -48
     4          -49            4          -49
     5           50           -5          -50
     6           51            6           51
     7           52            7          -52
     8          -53            8          -53
     9           54           -9          -54
    10           55           10           55
    11           56           11           56
    12           57           12           57
    13          -58           13           58
    14           59          -14           59
    15          -60          -15           60
    16           31           16           61
    17           32           17           62
    18           33           18          -63
    19          -34           19          -64
    20           35          -20          -65
    21           36           21           66
    22           37           22          -67
    23          -38           23          -68
    24           39          -24          -69
    25           40           25           70
    26           41           26           71
    27           42           27           72
    28          -43           28           73
    29           44          -29           74
    30          -45          -30           75
    31           16           31           76
    32           17           32           77
    33           18           33          -78
    34          -19           34          -79
    35           20          -35          -80
    36           21           36           81
    37           22           37          -82
    38          -23           38          -83
    39           24          -39          -84
    40           25           40           85
    41           26           41           86
    42           27           42           87
    43          -28           43           88
    44           29          -44           89
    45          -30          -45           90
    46            1           46            1
    47            2           47            2
    48            3           48           -3
    49           -4           49           -4
    50            5          -50           -5
    51            6           51            6
    52            7           52           -7
    53           -8           53           -8
    54            9          -54           -9
    55           10           55           10
    56           11           56           11
    57           12           57           12
    58          -13           58           13
    59           14          -59           14
    60          -15          -60           15
    61           76           61           16
    62           77           62           17
    63           78           63          -18
    64          -79           64          -19
    65           80          -65          -20
    66           81           66           21
    67           82           67          -22
    68          -83           68          -23
    69           84          -69          -24
    70           85           70           25
    71           86           71           26
    72           87           72           27
    73          -88           73           28
    74           89          -74           29
    75          -90          -75           30
    76           61           76           31
    77           62           77           32
    78           63           78          -33
    79          -64           79          -34
    80           65          -80          -35
    81           66           81           36
    82           67           82          -37
    83          -68           83          -38
    84           69          -84          -39
    85           70           85           40
    86           71           86           41
    87           72           87           42
    88          -73           88           43
    89           74          -89           44
    90          -75          -90           45
    91           97           91           97
    92           98           92           98
    93           95           93           99
    94           96           94          100
    95           93           95          101
    96           94           96          102
    97           91           97           91
    98           92           98           92
    99          101           99           93
   100          102          100           94
   101           99          101           95
   102          100          102           96
 There are    23 symmetry adapted basis functions of AG  symmetry.
   1         1  46   1  46  46   1  46   1
   2         2  47   2  47  47   2  47   2
   3         4 -49   4 -49 -49   4 -49   4
   4         6  51   6  51  51   6  51   6
   5         8 -53   8 -53 -53   8 -53   8
   6        10  55  10  55  55  10  55  10
   7        11  56  11  56  56  11  56  11
   8        12  57  12  57  57  12  57  12
   9        16  61  76  31  61  16  31  76
  10        17  62  77  32  62  17  32  77
  11        18 -63 -78  33 -63  18  33 -78
  12        19 -64  79 -34 -64  19 -34  79
  13        21  66  81  36  66  21  36  81
  14        22 -67 -82  37 -67  22  37 -82
  15        23 -68  83 -38 -68  23 -38  83
  16        25  70  85  40  70  25  40  85
  17        26  71  86  41  71  26  41  86
  18        27  72  87  42  72  27  42  87
  19        28  73 -88 -43  73  28 -43 -88
  20        91  97  91  97  97  91  97  91
  21        92  98  92  98  98  92  98  92
  22        93  99 101  95  99  93  95 101
  23        94 100 102  96 100  94  96 102
 There are    16 symmetry adapted basis functions of B1G symmetry.
  24         3 -48   3 -48 -48   3 -48   3
  25         7 -52   7 -52 -52   7 -52   7
  26        13  58  13  58  58  13  58  13
  27        16  61 -76 -31  61  16 -31 -76
  28        17  62 -77 -32  62  17 -32 -77
  29        18 -63  78 -33 -63  18 -33  78
  30        19 -64 -79  34 -64  19  34 -79
  31        21  66 -81 -36  66  21 -36 -81
  32        22 -67  82 -37 -67  22 -37  82
  33        23 -68 -83  38 -68  23  38 -83
  34        25  70 -85 -40  70  25 -40 -85
  35        26  71 -86 -41  71  26 -41 -86
  36        27  72 -87 -42  72  27 -42 -87
  37        28  73  88  43  73  28  43  88
  38        93  99-101 -95  99  93 -95-101
  39        94 100-102 -96 100  94 -96-102
 There are     5 symmetry adapted basis functions of B2G symmetry.
  40        14  59  14  59  59  14  59  14
  41        20 -65 -80  35 -65  20  35 -80
  42        24 -69 -84  39 -69  24  39 -84
  43        29  74  89  44  74  29  44  89
  44        30  75 -90 -45  75  30 -45 -90
 There are     7 symmetry adapted basis functions of B3G symmetry.
  45         5 -50   5 -50 -50   5 -50   5
  46         9 -54   9 -54 -54   9 -54   9
  47        15  60  15  60  60  15  60  15
  48        20 -65  80 -35 -65  20 -35  80
  49        24 -69  84 -39 -69  24 -39  84
  50        29  74 -89 -44  74  29 -44 -89
  51        30  75  90  45  75  30  45  90
 There are     5 symmetry adapted basis functions of AU  symmetry.
  52        14 -59  14 -59 -59  14 -59  14
  53        20  65 -80 -35  65  20 -35 -80
  54        24  69 -84 -39  69  24 -39 -84
  55        29 -74  89 -44 -74  29 -44  89
  56        30 -75 -90  45 -75  30  45 -90
 There are     7 symmetry adapted basis functions of B1U symmetry.
  57         5  50   5  50  50   5  50   5
  58         9  54   9  54  54   9  54   9
  59        15 -60  15 -60 -60  15 -60  15
  60        20  65  80  35  65  20  35  80
  61        24  69  84  39  69  24  39  84
  62        29 -74 -89  44 -74  29  44 -89
  63        30 -75  90 -45 -75  30 -45  90
 There are    23 symmetry adapted basis functions of B2U symmetry.
  64         1 -46   1 -46 -46   1 -46   1
  65         2 -47   2 -47 -47   2 -47   2
  66         4  49   4  49  49   4  49   4
  67         6 -51   6 -51 -51   6 -51   6
  68         8  53   8  53  53   8  53   8
  69        10 -55  10 -55 -55  10 -55  10
  70        11 -56  11 -56 -56  11 -56  11
  71        12 -57  12 -57 -57  12 -57  12
  72        16 -61  76 -31 -61  16 -31  76
  73        17 -62  77 -32 -62  17 -32  77
  74        18  63 -78 -33  63  18 -33 -78
  75        19  64  79  34  64  19  34  79
  76        21 -66  81 -36 -66  21 -36  81
  77        22  67 -82 -37  67  22 -37 -82
  78        23  68  83  38  68  23  38  83
  79        25 -70  85 -40 -70  25 -40  85
  80        26 -71  86 -41 -71  26 -41  86
  81        27 -72  87 -42 -72  27 -42  87
  82        28 -73 -88  43 -73  28  43 -88
  83        91 -97  91 -97 -97  91 -97  91
  84        92 -98  92 -98 -98  92 -98  92
  85        93 -99 101 -95 -99  93 -95 101
  86        94-100 102 -96-100  94 -96 102
 There are    16 symmetry adapted basis functions of B3U symmetry.
  87         3  48   3  48  48   3  48   3
  88         7  52   7  52  52   7  52   7
  89        13 -58  13 -58 -58  13 -58  13
  90        16 -61 -76  31 -61  16  31 -76
  91        17 -62 -77  32 -62  17  32 -77
  92        18  63  78  33  63  18  33  78
  93        19  64 -79 -34  64  19 -34 -79
  94        21 -66 -81  36 -66  21  36 -81
  95        22  67  82  37  67  22  37  82
  96        23  68 -83 -38  68  23 -38 -83
  97        25 -70 -85  40 -70  25  40 -85
  98        26 -71 -86  41 -71  26  41 -86
  99        27 -72 -87  42 -72  27  42 -87
 100        28 -73  88 -43 -73  28 -43  88
 101        93 -99-101  95 -99  93  95-101
 102        94-100-102  96-100  94  96-102
 Order= 1 2 3 4 8 7 6 5
 Reordered character table:
              1            2            3            4            5
     1            1            1            1            1            1
[...]
 Symmetry B1G  KE= 3.733054796269D+01
 Symmetry B2G  KE= 2.152781880799D+00
 Symmetry B3G  KE= 2.176372974728D+00
 Symmetry AU   KE= 1.330376689653D+00
 Symmetry B1U  KE= 1.809843696300D+00
 Symmetry B2U  KE= 7.160674455377D+01
 Symmetry B3U  KE= 4.009962442887D+01
 Symmetry AG   SP= 1.870174886264D-14
 Symmetry B1G  SP= 5.856303052785D-15
 Symmetry B2G  SP=-1.799341925457D-15
 Symmetry B3G  SP= 2.781378371976D-15
 Symmetry AU   SP= 1.000000000000D+00
 Symmetry B1U  SP=-2.402524251592D-16
 Symmetry B2U  SP= 1.729581985987D-14
 Symmetry B3U  SP=-1.496080752231D-14
 Orbital energies and kinetic energies (alpha):
                                 1                 2
   1         O                -9.965772         15.883054
   2         O                -9.965765         15.881932
   3         O                -9.938285         15.870921
   4         O                -9.938270         15.871001
   5         O                -9.937788         15.880129
   6         O                -9.937780         15.882677
   7         O                -0.612050          1.470503
   8         O                -0.514915          1.550994
   9         O                -0.510113          1.555952
  10         O                -0.377598          1.402947
  11         O                -0.376408          1.414624
  12         O                -0.299866          0.921699
  13         O                -0.253270          1.270795
  14         O                -0.203579          1.414040
  15         O                -0.200626          1.219815
  16         O                -0.192568          1.212523
  17         O                -0.137608          0.914618
  18         O                -0.120170          1.392919
  19         O                -0.118001          1.377098
  20         O                -0.031081          1.096638
  21         O                -0.029922          1.089350
  22         O                 0.165573          1.330377
  23         V                 0.223001          1.312366
  24         V                 0.283023          0.884733
  25         V                 0.328559          0.925717
  26         V                 0.335370          0.920615
  27         V                 0.364229          1.109000
  28         V                 0.367125          1.593178
  29         V                 0.368272          1.125138
  30         V                 0.369314          1.031885
  31         V                 0.510523          1.455952
  32         V                 0.511916          1.480648
  33         (B2G)--V          0.528532          1.472840
  34         (B2G)--V          0.530897          1.452363
  35         (B2G)--V          0.685354          1.490080
  36         (A2U)--V          0.741786          2.017354
  37         (B2G)--V          0.759994          2.951313
  38         V                 0.768420          1.692490
  39         V                 0.771295          1.807303
  40         V                 0.805481          1.507828
  41         V                 0.811385          2.072272
  42         V                 0.813185          2.065222
  43         V                 0.815338          2.520347
  44         V                 0.821491          2.520116
  45         (B2G)--V          0.844120          2.006725
  46         (B2G)--V          0.844410          2.005163
  47         (E2U)--V          0.871262          2.218933
  48         (E2U)--V          0.875809          2.238043
  49         V                 0.946664          2.279958
  50         V                 1.052184          2.844823
  51         (B2G)--V          1.053841          3.029048
  52         V                 1.061531          2.847558
  53         (B2G)--V          1.076949          2.613436
  54         (B2G)--V          1.083244          2.575446
  55         (B2G)--V          1.147375          2.492094
  56         (B2G)--V          1.148552          2.496512
  57         V                 1.159191          2.700771
  58         V                 1.167298          3.045974
  59         V                 1.285253          2.086248
  60         V                 1.285356          2.092773
  61         (B2G)--V          1.354981          2.303971
  62         (B2G)--V          1.359539          2.305150
  63         (B2G)--V          1.406789          2.439459
  64         (B1G)--V          1.493462          2.394163
  65         V                 1.625710          2.527390
  66         (E2G)--V          1.654625          2.514111
  67         (E2G)--V          1.654856          2.521354
  68         V                 1.713685          2.659393
  69         V                 1.716635          2.658007
  70         (E1G)--V          1.740690          2.684547
  71         (E1G)--V          1.744487          2.684163
  72         (A1G)--V          1.986043          2.930747
  73         (B2U)--V          2.015282          3.154770
  74         V                 2.100858          3.238767
  75         V                 2.109400          3.041983
  76         V                 2.214018          3.499018
  77         V                 2.220636          3.496178
  78         V                 2.288102          3.648231
  79         V                 2.293129          3.645065
  80         (E2U)--V          2.375496          3.333012
  81         V                 2.375645          3.549251
  82         V                 2.375695          3.546291
  83         (E2U)--V          2.376355          3.332965
  84         V                 2.533713          3.549817
  85         V                 2.535571          3.550171
  86         V                 2.541915          3.524640
  87         (E2G)--V          2.774744          4.079525
  88         (E2G)--V          2.774873          4.072911
  89         (A1U)--V          2.876827          3.914304
  90         (E2G)--V          2.934413          4.431166
  91         (E2G)--V          2.939643          4.426206
  92         V                 2.942637          4.538999
  93         V                 2.949558          4.538286
  94         V                 2.986100          4.188169
  95         (A2G)--V          3.239710          4.928361
  96         (B1U)--V          3.639095          5.200252
  97         V                 4.315357         10.190607
  98         V                 4.346450         10.197485
  99         V                 4.354917         10.204603
 100         V                 4.558287         10.130549
 101         V                 4.566390         10.136853
 102         V                 4.894289         10.401863
 Orbital energies and kinetic energies (beta):
                                 1                 2
   1         O                -9.967223         15.881025
   2         O                -9.967216         15.879895
   3         O                -9.933985         15.877795
   4         O                -9.933974         15.877872
   5         O                -9.933461         15.889654
   6         O                -9.933458         15.887243
   7         (B2G)--O         -0.605101          1.466327
   8         O                -0.510899          1.550691
   9         O                -0.498597          1.544733
  10         (B2G)--O         -0.376256          1.399240
  11         (B2G)--O         -0.364179          1.396031
  12         (B2G)--O         -0.297425          0.919551
  13         O                -0.248212          1.259041
  14         O                -0.199930          1.415803
  15         O                -0.199589          1.218999
  16         O                -0.189417          1.207857
  17         O                -0.118934          0.895226
  18         (B2G)--O         -0.117782          1.392298
  19         (B2G)--O         -0.115543          1.375423
  20         O                -0.018198          1.087023
  21         O                 0.004648          1.056144
  22         V                 0.226973          1.300913
  23         V                 0.251173          1.266275
  24         (B2G)--V          0.284357          0.889089
  25         V                 0.328544          0.927419
  26         V                 0.337887          0.923620
  27         (B2G)--V          0.366169          1.102106
  28         V                 0.372520          1.021184
  29         (B2G)--V          0.373304          1.111046
  30         V                 0.397410          1.552517
  31         (B2G)--V          0.513189          1.479244
  32         (B2G)--V          0.516257          1.452454
  33         V                 0.530458          1.465574
  34         V                 0.534990          1.442997
  35         V                 0.687395          1.488711
  36         V                 0.752683          2.036315
  37         (B2G)--V          0.768692          1.693705
  38         V                 0.770841          2.974126
  39         (B2G)--V          0.774514          1.796205
  40         (B2G)--V          0.809072          1.513954
  41         V                 0.815491          2.074619
  42         (B2G)--V          0.824894          2.516421
  43         (B2G)--V          0.825487          2.568616
  44         V                 0.832756          2.101075
  45         V                 0.848839          2.007433
  46         V                 0.850245          2.025529
  47         V                 0.880122          2.246568
  48         V                 0.896745          2.281699
  49         V                 0.961730          2.320391
  50         (B2G)--V          1.052093          2.844106
  51         V                 1.055574          3.021983
  52         (B2G)--V          1.066096          2.857670
  53         V                 1.079080          2.632550
  54         V                 1.087008          2.570521
  55         V                 1.151520          2.502384
  56         V                 1.153687          2.493633
  57         (B2G)--V          1.161959          2.704443
  58         (B2G)--V          1.169709          3.056114
  59         (B2G)--V          1.287222          2.088448
  60         (B2G)--V          1.297260          2.076467
  61         V                 1.356406          2.305706
  62         V                 1.362583          2.304198
  63         V                 1.412233          2.431263
  64         V                 1.506011          2.394355
  65         V                 1.636966          2.529368
  66         (E2G)--V          1.655361          2.514839
  67         (E2G)--V          1.660910          2.515306
  68         V                 1.724814          2.660843
  69         V                 1.731786          2.659043
  70         V                 1.745626          2.684732
  71         V                 1.764427          2.687656
  72         V                 2.001878          2.930888
  73         (B2U)--V          2.016954          3.154937
  74         V                 2.102374          3.238987
  75         V                 2.115269          3.037059
  76         V                 2.215189          3.500718
  77         V                 2.227889          3.510345
  78         V                 2.294248          3.661850
  79         V                 2.296715          3.647060
  80         V                 2.379711          3.545665
  81         V                 2.382172          3.333357
  82         V                 2.394685          3.333086
  83         V                 2.397269          3.533110
  84         V                 2.539978          3.550773
  85         V                 2.551406          3.534842
  86         V                 2.560162          3.539991
  87         V                 2.778060          4.068577
  88         V                 2.793824          4.050942
  89         V                 2.891638          3.914069
  90         V                 2.935225          4.433843
  91         V                 2.943141          4.538886
  92         V                 2.944430          4.434690
  93         V                 2.953558          4.538025
  94         V                 2.999349          4.182832
  95         V                 3.242222          4.928911
  96         (B1U)--V          3.642627          5.200372
  97         V                 4.321266         10.190759
  98         V                 4.348490         10.196014
  99         V                 4.365552         10.204936
 100         V                 4.560880         10.129930
 101         V                 4.577776         10.138460
 102         V                 4.901242         10.402407
 Total kinetic energy from orbitals= 2.303824772616D+02
                          Isotropic Fermi Contact Couplings
        Atom                 a.u.       MegaHertz       Gauss      10(-4) cm-1
     1  C(13)             -0.02220     -24.95697      -8.90527      -8.32475
     2  C(13)              0.02976      33.45211      11.93655      11.15842
     3  C(13)              0.02976      33.45211      11.93655      11.15842
     4  C(13)             -0.02220     -24.95697      -8.90527      -8.32475
     5  C(13)              0.02976      33.45211      11.93655      11.15842
     6  C(13)              0.02976      33.45211      11.93655      11.15842
     7  H(1)               0.00099       4.42590       1.57927       1.47632
     8  H(1)              -0.00548     -24.48636      -8.73734      -8.16777
     9  H(1)              -0.00548     -24.48636      -8.73734      -8.16777
    10  H(1)               0.00099       4.42590       1.57927       1.47632
    11  H(1)              -0.00548     -24.48636      -8.73734      -8.16777
    12  H(1)              -0.00548     -24.48636      -8.73734      -8.16777
 --------------------------------------------------------
       Center         ----  Spin Dipole Couplings  ----
                      3XX-RR        3YY-RR        3ZZ-RR
 --------------------------------------------------------
     1   Atom        0.051374      0.032215     -0.083589
     2   Atom       -0.176157     -0.172623      0.348780
     3   Atom       -0.176157     -0.172623      0.348780
     4   Atom        0.051374      0.032215     -0.083589
     5   Atom       -0.176157     -0.172623      0.348780
     6   Atom       -0.176157     -0.172623      0.348780
     7   Atom        0.004665      0.001729     -0.006394
     8   Atom        0.014301     -0.013181     -0.001120
     9   Atom        0.014301     -0.013181     -0.001120
    10   Atom        0.004665      0.001729     -0.006394
    11   Atom        0.014301     -0.013181     -0.001120
    12   Atom        0.014301     -0.013181     -0.001120
 --------------------------------------------------------
                        XY            XZ            YZ
 --------------------------------------------------------
     1   Atom        0.000000      0.000000      0.000000
     2   Atom        0.003599      0.000000      0.000000
     3   Atom       -0.003599      0.000000      0.000000
     4   Atom        0.000000      0.000000      0.000000
     5   Atom        0.003599      0.000000      0.000000
     6   Atom       -0.003599      0.000000      0.000000
     7   Atom        0.000000      0.000000      0.000000
     8   Atom        0.023517      0.000000      0.000000
     9   Atom       -0.023517      0.000000      0.000000
    10   Atom        0.000000      0.000000      0.000000
    11   Atom        0.023517      0.000000      0.000000
    12   Atom       -0.023517      0.000000      0.000000
 --------------------------------------------------------


 ---------------------------------------------------------------------------------
              Anisotropic Spin Dipole Couplings in Principal Axis System
 ---------------------------------------------------------------------------------

       Atom             a.u.   MegaHertz   Gauss  10(-4) cm-1        Axes

              Baa    -0.0836   -11.217    -4.002    -3.742  0.0000  0.0000  1.0000
     1 C(13)  Bbb     0.0322     4.323     1.543     1.442  0.0000  1.0000  0.0000
              Bcc     0.0514     6.894     2.460     2.300  1.0000  0.0000  0.0000
 
              Baa    -0.1784   -23.939    -8.542    -7.985  0.8487 -0.5288  0.0000
     2 C(13)  Bbb    -0.1704   -22.863    -8.158    -7.626  0.5288  0.8487  0.0000
              Bcc     0.3488    46.803    16.700    15.612  0.0000  0.0000  1.0000
 
              Baa    -0.1784   -23.939    -8.542    -7.985  0.8487  0.5288  0.0000
     3 C(13)  Bbb    -0.1704   -22.863    -8.158    -7.626 -0.5288  0.8487  0.0000
              Bcc     0.3488    46.803    16.700    15.612  0.0000  0.0000  1.0000
 
              Baa    -0.0836   -11.217    -4.002    -3.742  0.0000  0.0000  1.0000
     4 C(13)  Bbb     0.0322     4.323     1.543     1.442  0.0000  1.0000  0.0000
              Bcc     0.0514     6.894     2.460     2.300  1.0000  0.0000  0.0000
 
              Baa    -0.1784   -23.939    -8.542    -7.985  0.8487 -0.5288  0.0000
     5 C(13)  Bbb    -0.1704   -22.863    -8.158    -7.626  0.5288  0.8487  0.0000
              Bcc     0.3488    46.803    16.700    15.612  0.0000  0.0000  1.0000
 
              Baa    -0.1784   -23.939    -8.542    -7.985  0.8487  0.5288  0.0000
     6 C(13)  Bbb    -0.1704   -22.863    -8.158    -7.626 -0.5288  0.8487  0.0000
              Bcc     0.3488    46.803    16.700    15.612  0.0000  0.0000  1.0000
 
              Baa    -0.0064    -3.412    -1.217    -1.138  0.0000  0.0000  1.0000
     7 H(1)   Bbb     0.0017     0.923     0.329     0.308  0.0000  1.0000  0.0000
              Bcc     0.0047     2.489     0.888     0.830  1.0000  0.0000  0.0000
 
              Baa    -0.0267   -14.234    -5.079    -4.748 -0.4978  0.8673  0.0000
     8 H(1)   Bbb    -0.0011    -0.597    -0.213    -0.199  0.0000  0.0000  1.0000
              Bcc     0.0278    14.831     5.292     4.947  0.8673  0.4978  0.0000
 
              Baa    -0.0267   -14.234    -5.079    -4.748  0.4978  0.8673  0.0000
     9 H(1)   Bbb    -0.0011    -0.597    -0.213    -0.199  0.0000  0.0000  1.0000
              Bcc     0.0278    14.831     5.292     4.947  0.8673 -0.4978  0.0000
 
              Baa    -0.0064    -3.412    -1.217    -1.138  0.0000  0.0000  1.0000
    10 H(1)   Bbb     0.0017     0.923     0.329     0.308  0.0000  1.0000  0.0000
              Bcc     0.0047     2.489     0.888     0.830  1.0000  0.0000  0.0000
 
              Baa    -0.0267   -14.234    -5.079    -4.748 -0.4978  0.8673  0.0000
    11 H(1)   Bbb    -0.0011    -0.597    -0.213    -0.199  0.0000  0.0000  1.0000
              Bcc     0.0278    14.831     5.292     4.947  0.8673  0.4978  0.0000
 
              Baa    -0.0267   -14.234    -5.079    -4.748  0.4978  0.8673  0.0000
    12 H(1)   Bbb    -0.0011    -0.597    -0.213    -0.199  0.0000  0.0000  1.0000
              Bcc     0.0278    14.831     5.292     4.947  0.8673 -0.4978  0.0000
 

 ---------------------------------------------------------------------------------


 Test job not archived.
 1|1|UNPC-LAB102|SP|UB3LYP|6-31G(d)|C6H6(1-,2)|11032|26-Mar-2025|0||# b
 3lyp/6-31g(d) pop=full gfinput iop(3/33=1)||Title Card Required||-1,2|
 C,0,0.,1.4014,0.|C,0,1.213648,0.7007,0.|C,0,1.213648,-0.7007,0.|C,0,0.
 ,-1.4014,0.|C,0,-1.213648,-0.7007,0.|C,0,-1.213648,0.7007,0.|H,0,0.,2.
 4714,0.|H,0,2.140295,1.2357,0.|H,0,2.140295,-1.2357,0.|H,0,0.,-2.4714,
 0.|H,0,-2.140295,-1.2357,0.|H,0,-2.140295,1.2357,0.||Version=IA32W-G16
 RevA.03|HF=-232.1631238|S2=0.761412|S2-1=0.|S2A=0.750088|RMSD=7.423e-0
 09|Dipole=0.,0.,0.|Quadrupole=-1.162832,0.5684236,0.5944085,0.,0.,0.|P
 G=D06H [3C2'(H1C1.C1H1)]||@


 YOU SHOULDN'T LET PEOPLE DRIVE YOU CRAZY
 WHEN YOU KNOW IT'S WITHIN WALKING DISTANCE.
 Job cpu time:       0 days  0 hours  0 minutes 19.0 seconds.
 Elapsed time:       0 days  0 hours  0 minutes  7.0 seconds.
 File lengths (MBytes):  RWF=      9 Int=      0 D2E=      0 Chk=      2 Scr=      1
 Normal termination of Gaussian 16 at Wed Mar 26 10:55:24 2025.
