 Entering Link 1 = C:\G16W\l1.exe PID=     17692.
  
 Copyright (c) 1988,1990,1992,1993,1995,1998,2003,2009,2016,
            Gaussian, Inc.  All Rights Reserved.
  
 This is part of the Gaussian(R) 16 program.  It is based on
 the Gaussian(R) 09 system (copyright 2009, Gaussian, Inc.),
 the Gaussian(R) 03 system (copyright 2003, Gaussian, Inc.),
 the Gaussian(R) 98 system (copyright 1998, Gaussian, Inc.),
 the Gaussian(R) 94 system (copyright 1995, Gaussian, Inc.),
 the Gaussian 92(TM) system (copyright 1992, Gaussian, Inc.),
 the Gaussian 90(TM) system (copyright 1990, Gaussian, Inc.),
 the Gaussian 88(TM) system (copyright 1988, Gaussian, Inc.),
 the Gaussian 86(TM) system (copyright 1986, Carnegie Mellon
 University), and the Gaussian 82(TM) system (copyright 1983,
 Carnegie Mellon University). Gaussian is a federally registered
 trademark of Gaussian, Inc.
  
 This software contains proprietary and confidential information,
 including trade secrets, belonging to Gaussian, Inc.
  
 This software is provided under written license and may be
 used, copied, transmitted, or stored only in accord with that
 written license.
  
 The following legend is applicable only to US Government
 contracts under FAR:
  
                    RESTRICTED RIGHTS LEGEND
  
 Use, reproduction and disclosure by the US Government is
 subject to restrictions as set forth in subparagraphs (a)
 and (c) of the Commercial Computer Software - Restricted
 Rights clause in FAR 52.227-19.
  
 Gaussian, Inc.
 340 Quinnipiac St., Bldg. 40, Wallingford CT 06492
  
  
 ---------------------------------------------------------------
 Warning -- This program may not be used in any manner that
 competes with the business of Gaussian, Inc. or will provide
 assistance to any competitor of Gaussian, Inc.  The licensee
 of this program is prohibited from giving any competitor of
 Gaussian, Inc. access to this program.  By using this program,
 the user acknowledges that Gaussian, Inc. is engaged in the
 business of creating and licensing software in the field of
 computational chemistry and represents and warrants to the
 licensee that it is not a competitor of Gaussian, Inc. and that
 it will not use this program in any manner prohibited above.
 ---------------------------------------------------------------
  

 Cite this work as:
 Gaussian 16, Revision A.03,
 M. J. Frisch, G. W. Trucks, H. B. Schlegel, G. E. Scuseria, 
 M. A. Robb, J. R. Cheeseman, G. Scalmani, V. Barone, 
 G. A. Petersson, H. Nakatsuji, X. Li, M. Caricato, A. V. Marenich, 
 J. Bloino, B. G. Janesko, R. Gomperts, B. Mennucci, H. P. Hratchian, 
 J. V. Ortiz, A. F. Izmaylov, J. L. Sonnenberg, D. Williams-Young, 
 F. Ding, F. Lipparini, F. Egidi, J. Goings, B. Peng, A. Petrone, 
 T. Henderson, D. Ranasinghe, V. G. Zakrzewski, J. Gao, N. Rega, 
 G. Zheng, W. Liang, M. Hada, M. Ehara, K. Toyota, R. Fukuda, 
 J. Hasegawa, M. Ishida, T. Nakajima, Y. Honda, O. Kitao, H. Nakai, 
 T. Vreven, K. Throssell, J. A. Montgomery, Jr., J. E. Peralta, 
 F. Ogliaro, M. J. Bearpark, J. J. Heyd, E. N. Brothers, K. N. Kudin, 
 V. N. Staroverov, T. A. Keith, R. Kobayashi, J. Normand, 
 K. Raghavachari, A. P. Rendell, J. C. Burant, S. S. Iyengar, 
 J. Tomasi, M. Cossi, J. M. Millam, M. Klene, C. Adamo, R. Cammi, 
 J. W. Ochterski, R. L. Martin, K. Morokuma, O. Farkas, 
 J. B. Foresman, and D. J. Fox, Gaussian, Inc., Wallingford CT, 2016.
 
 ******************************************
 Gaussian 16:  IA32W-G16RevA.03 25-Dec-2016
                26-Mar-2025 
 ******************************************
 %chk=D:\gfile\pywfn\C6H6_P.chk
 ---------------------------------------------
 # b3lyp/6-31g(d) pop=full gfinput iop(3/33=1)
 ---------------------------------------------
 1/38=1,172=1/1;
 2/12=2,17=6,18=5,40=1/2;
 3/5=1,6=6,7=1,11=2,24=10,25=1,30=1,33=1,74=-5/1,2,3;
 4//1;
 5/5=2,38=5/2;
 6/7=3,28=1/1;
 99/5=1,9=1/99;
 -------------------
 Title Card Required
 -------------------
 Symbolic Z-matrix:
 Charge =  1 Multiplicity = 2
 C                     0.        1.4014    0. 
 C                     1.21365   0.7007    0. 
 C                     1.21365  -0.7007    0. 
 C                     0.       -1.4014    0. 
 C                    -1.21365  -0.7007    0. 
 C                    -1.21365   0.7007    0. 
 H                     0.        2.4714    0. 
 H                     2.1403    1.2357    0. 
 H                     2.1403   -1.2357    0. 
 H                     0.       -2.4714    0. 
 H                    -2.1403   -1.2357    0. 
 H                    -2.1403    1.2357    0. 
 
                          Input orientation:                          
 ---------------------------------------------------------------------
 Center     Atomic      Atomic             Coordinates (Angstroms)
 Number     Number       Type             X           Y           Z
 ---------------------------------------------------------------------
      1          6           0        0.000000    1.401400    0.000000
      2          6           0        1.213648    0.700700    0.000000
      3          6           0        1.213648   -0.700700    0.000000
      4          6           0        0.000000   -1.401400    0.000000
      5          6           0       -1.213648   -0.700700    0.000000
      6          6           0       -1.213648    0.700700    0.000000
      7          1           0        0.000000    2.471400    0.000000
      8          1           0        2.140295    1.235700    0.000000
      9          1           0        2.140295   -1.235700    0.000000
     10          1           0        0.000000   -2.471400    0.000000
     11          1           0       -2.140295   -1.235700    0.000000
     12          1           0       -2.140295    1.235700    0.000000
 ---------------------------------------------------------------------
                    Distance matrix (angstroms):
                    1          2          3          4          5
     1  C    0.000000
     2  C    1.401400   0.000000
     3  C    2.427296   1.401400   0.000000
     4  C    2.802800   2.427296   1.401400   0.000000
     5  C    2.427296   2.802800   2.427296   1.401400   0.000000
     6  C    1.401400   2.427296   2.802800   2.427296   1.401400
     7  H    1.070000   2.146700   3.396345   3.872800   3.396345
     8  H    2.146700   1.070000   2.146700   3.396345   3.872800
     9  H    3.396345   2.146700   1.070000   2.146700   3.396345
    10  H    3.872800   3.396345   2.146700   1.070000   2.146700
    11  H    3.396345   3.872800   3.396345   2.146700   1.070000
    12  H    2.146700   3.396345   3.872800   3.396345   2.146700
                    6          7          8          9         10
     6  C    0.000000
     7  H    2.146700   0.000000
     8  H    3.396345   2.471400   0.000000
     9  H    3.872800   4.280590   2.471400   0.000000
    10  H    3.396345   4.942800   4.280590   2.471400   0.000000
    11  H    2.146700   4.280590   4.942800   4.280590   2.471400
    12  H    1.070000   2.471400   4.280590   4.942800   4.280590
                   11         12
    11  H    0.000000
    12  H    2.471400   0.000000
 Stoichiometry    C6H6(1+,2)
 Framework group  D6H[3C2'(HC.CH)]
 Deg. of freedom     2
 Full point group                 D6H     NOp  24
 Largest Abelian subgroup         D2H     NOp   8
 Largest concise Abelian subgroup D2      NOp   4
                         Standard orientation:                         
 ---------------------------------------------------------------------
 Center     Atomic      Atomic             Coordinates (Angstroms)
 Number     Number       Type             X           Y           Z
 ---------------------------------------------------------------------
      1          6           0        0.000000    1.401400    0.000000
      2          6           0        1.213648    0.700700    0.000000
      3          6           0        1.213648   -0.700700    0.000000
      4          6           0        0.000000   -1.401400    0.000000
      5          6           0       -1.213648   -0.700700    0.000000
      6          6           0       -1.213648    0.700700    0.000000
      7          1           0        0.000000    2.471400    0.000000
      8          1           0        2.140295    1.235700    0.000000
      9          1           0        2.140295   -1.235700    0.000000
     10          1           0        0.000000   -2.471400    0.000000
     11          1           0       -2.140295   -1.235700    0.000000
     12          1           0       -2.140295    1.235700    0.000000
 ---------------------------------------------------------------------
 Rotational constants (GHZ):           5.6677156           5.6677156           2.8338578
 Standard basis: 6-31G(d) (6D, 7F)
                         Coordinates in L301:                         
 ---------------------------------------------------------------------
 Center     Atomic      Atomic             Coordinates (Angstroms)
 Number     Number       Type             X           Y           Z
 ---------------------------------------------------------------------
      1          6           0        0.000000    1.401400    0.000000
      2          6           0        1.213648    0.700700    0.000000
      3          6           0        1.213648   -0.700700    0.000000
      4          6           0        0.000000   -1.401400    0.000000
      5          6           0       -1.213648   -0.700700    0.000000
      6          6           0       -1.213648    0.700700    0.000000
      7          1           0        0.000000    2.471400    0.000000
      8          1           0        2.140295    1.235700    0.000000
      9          1           0        2.140295   -1.235700    0.000000
     10          1           0        0.000000   -2.471400    0.000000
     11          1           0       -2.140295   -1.235700    0.000000
     12          1           0       -2.140295    1.235700    0.000000
 ---------------------------------------------------------------------
 FixB: optimizing general contractions.
 Ernie: Thresh=  0.10000D-02 Tol=  0.10000D-05 Strict=F.
 IA=     1 ShT= 0 ShC= 0 NL=   1 NS=   0.
 IA=     1 L=0 SC=0 ISt=    0 NBk=    0 NP=    0 IndPr=    0.
 IA=     1 ShT= 1 ShC= 0 NL=   2 NS=   1.
 IA=     1 L=1 SC=0 ISt=    0 NBk=    0 NP=    0 IndPr=    0.
 IA=     1 ShT= 2 ShC= 2 NL=   1 NS=   1.
 IA=     1 L=2 SC=2 ISt=    0 NBk=    0 NP=    0 IndPr=    0.
 IA=     2 ShT= 0 ShC= 0 NL=   1 NS=   0.
 IA=     2 L=0 SC=0 ISt=    0 NBk=    0 NP=    0 IndPr=    0.
 IA=     2 ShT= 1 ShC= 0 NL=   2 NS=   1.
 IA=     2 L=1 SC=0 ISt=    0 NBk=    0 NP=    0 IndPr=    0.
 IA=     2 ShT= 2 ShC= 2 NL=   1 NS=   1.
 IA=     2 L=2 SC=2 ISt=    0 NBk=    0 NP=    0 IndPr=    0.
 IA=     3 ShT= 0 ShC= 0 NL=   1 NS=   0.
 IA=     3 L=0 SC=0 ISt=    0 NBk=    0 NP=    0 IndPr=    0.
 IA=     3 ShT= 1 ShC= 0 NL=   2 NS=   1.
 IA=     3 L=1 SC=0 ISt=    0 NBk=    0 NP=    0 IndPr=    0.
 IA=     3 ShT= 2 ShC= 2 NL=   1 NS=   1.
 IA=     3 L=2 SC=2 ISt=    0 NBk=    0 NP=    0 IndPr=    0.
 IA=     4 ShT= 0 ShC= 0 NL=   1 NS=   0.
 IA=     4 L=0 SC=0 ISt=    0 NBk=    0 NP=    0 IndPr=    0.
 IA=     4 ShT= 1 ShC= 0 NL=   2 NS=   1.
 IA=     4 L=1 SC=0 ISt=    0 NBk=    0 NP=    0 IndPr=    0.
 IA=     4 ShT= 2 ShC= 2 NL=   1 NS=   1.
 IA=     4 L=2 SC=2 ISt=    0 NBk=    0 NP=    0 IndPr=    0.
 IA=     5 ShT= 0 ShC= 0 NL=   1 NS=   0.
 IA=     5 L=0 SC=0 ISt=    0 NBk=    0 NP=    0 IndPr=    0.
 IA=     5 ShT= 1 ShC= 0 NL=   2 NS=   1.
 IA=     5 L=1 SC=0 ISt=    0 NBk=    0 NP=    0 IndPr=    0.
 IA=     5 ShT= 2 ShC= 2 NL=   1 NS=   1.
 IA=     5 L=2 SC=2 ISt=    0 NBk=    0 NP=    0 IndPr=    0.
 IA=     6 ShT= 0 ShC= 0 NL=   1 NS=   0.
 IA=     6 L=0 SC=0 ISt=    0 NBk=    0 NP=    0 IndPr=    0.
 IA=     6 ShT= 1 ShC= 0 NL=   2 NS=   1.
 IA=     6 L=1 SC=0 ISt=    0 NBk=    0 NP=    0 IndPr=    0.
 IA=     6 ShT= 2 ShC= 2 NL=   1 NS=   1.
 IA=     6 L=2 SC=2 ISt=    0 NBk=    0 NP=    0 IndPr=    0.
 IA=     7 ShT= 0 ShC= 0 NL=   2 NS=   1.
 IA=     7 L=0 SC=0 ISt=    0 NBk=    0 NP=    0 IndPr=    0.
 IA=     8 ShT= 0 ShC= 0 NL=   2 NS=   1.
 IA=     8 L=0 SC=0 ISt=    0 NBk=    0 NP=    0 IndPr=    0.
 IA=     9 ShT= 0 ShC= 0 NL=   2 NS=   1.
 IA=     9 L=0 SC=0 ISt=    0 NBk=    0 NP=    0 IndPr=    0.
 IA=    10 ShT= 0 ShC= 0 NL=   2 NS=   1.
 IA=    10 L=0 SC=0 ISt=    0 NBk=    0 NP=    0 IndPr=    0.
 IA=    11 ShT= 0 ShC= 0 NL=   2 NS=   1.
 IA=    11 L=0 SC=0 ISt=    0 NBk=    0 NP=    0 IndPr=    0.
 IA=    12 ShT= 0 ShC= 0 NL=   2 NS=   1.
 IA=    12 L=0 SC=0 ISt=    0 NBk=    0 NP=    0 IndPr=    0.
 AO basis set in the form of general basis input (Overlap normalization):
      1 0
 S   6 1.00       0.000000000000
      0.3047524880D+04  0.1834737132D-02
      0.4573695180D+03  0.1403732281D-01
      0.1039486850D+03  0.6884262226D-01
      0.2921015530D+02  0.2321844432D+00
      0.9286662960D+01  0.4679413484D+00
      0.3163926960D+01  0.3623119853D+00
 SP   3 1.00       0.000000000000
      0.7868272350D+01 -0.1193324198D+00  0.6899906659D-01
      0.1881288540D+01 -0.1608541517D+00  0.3164239610D+00
      0.5442492580D+00  0.1143456438D+01  0.7443082909D+00
 SP   1 1.00       0.000000000000
      0.1687144782D+00  0.1000000000D+01  0.1000000000D+01
 D   1 1.00       0.000000000000
      0.8000000000D+00  0.1000000000D+01
 ****
      2 0
 S   6 1.00       0.000000000000
      0.3047524880D+04  0.1834737132D-02
      0.4573695180D+03  0.1403732281D-01
      0.1039486850D+03  0.6884262226D-01
      0.2921015530D+02  0.2321844432D+00
      0.9286662960D+01  0.4679413484D+00
      0.3163926960D+01  0.3623119853D+00
 SP   3 1.00       0.000000000000
      0.7868272350D+01 -0.1193324198D+00  0.6899906659D-01
      0.1881288540D+01 -0.1608541517D+00  0.3164239610D+00
      0.5442492580D+00  0.1143456438D+01  0.7443082909D+00
 SP   1 1.00       0.000000000000
      0.1687144782D+00  0.1000000000D+01  0.1000000000D+01
 D   1 1.00       0.000000000000
      0.8000000000D+00  0.1000000000D+01
 ****
      3 0
 S   6 1.00       0.000000000000
      0.3047524880D+04  0.1834737132D-02
      0.4573695180D+03  0.1403732281D-01
      0.1039486850D+03  0.6884262226D-01
      0.2921015530D+02  0.2321844432D+00
      0.9286662960D+01  0.4679413484D+00
      0.3163926960D+01  0.3623119853D+00
 SP   3 1.00       0.000000000000
      0.7868272350D+01 -0.1193324198D+00  0.6899906659D-01
      0.1881288540D+01 -0.1608541517D+00  0.3164239610D+00
      0.5442492580D+00  0.1143456438D+01  0.7443082909D+00
 SP   1 1.00       0.000000000000
      0.1687144782D+00  0.1000000000D+01  0.1000000000D+01
 D   1 1.00       0.000000000000
      0.8000000000D+00  0.1000000000D+01
 ****
      4 0
 S   6 1.00       0.000000000000
      0.3047524880D+04  0.1834737132D-02
      0.4573695180D+03  0.1403732281D-01
      0.1039486850D+03  0.6884262226D-01
      0.2921015530D+02  0.2321844432D+00
      0.9286662960D+01  0.4679413484D+00
      0.3163926960D+01  0.3623119853D+00
 SP   3 1.00       0.000000000000
      0.7868272350D+01 -0.1193324198D+00  0.6899906659D-01
      0.1881288540D+01 -0.1608541517D+00  0.3164239610D+00
      0.5442492580D+00  0.1143456438D+01  0.7443082909D+00
 SP   1 1.00       0.000000000000
      0.1687144782D+00  0.1000000000D+01  0.1000000000D+01
 D   1 1.00       0.000000000000
      0.8000000000D+00  0.1000000000D+01
 ****
      5 0
 S   6 1.00       0.000000000000
      0.3047524880D+04  0.1834737132D-02
      0.4573695180D+03  0.1403732281D-01
      0.1039486850D+03  0.6884262226D-01
      0.2921015530D+02  0.2321844432D+00
      0.9286662960D+01  0.4679413484D+00
      0.3163926960D+01  0.3623119853D+00
 SP   3 1.00       0.000000000000
      0.7868272350D+01 -0.1193324198D+00  0.6899906659D-01
      0.1881288540D+01 -0.1608541517D+00  0.3164239610D+00
      0.5442492580D+00  0.1143456438D+01  0.7443082909D+00
 SP   1 1.00       0.000000000000
      0.1687144782D+00  0.1000000000D+01  0.1000000000D+01
 D   1 1.00       0.000000000000
      0.8000000000D+00  0.1000000000D+01
 ****
      6 0
 S   6 1.00       0.000000000000
      0.3047524880D+04  0.1834737132D-02
      0.4573695180D+03  0.1403732281D-01
      0.1039486850D+03  0.6884262226D-01
      0.2921015530D+02  0.2321844432D+00
      0.9286662960D+01  0.4679413484D+00
      0.3163926960D+01  0.3623119853D+00
 SP   3 1.00       0.000000000000
      0.7868272350D+01 -0.1193324198D+00  0.6899906659D-01
      0.1881288540D+01 -0.1608541517D+00  0.3164239610D+00
      0.5442492580D+00  0.1143456438D+01  0.7443082909D+00
 SP   1 1.00       0.000000000000
      0.1687144782D+00  0.1000000000D+01  0.1000000000D+01
 D   1 1.00       0.000000000000
      0.8000000000D+00  0.1000000000D+01
 ****
      7 0
 S   3 1.00       0.000000000000
      0.1873113696D+02  0.3349460434D-01
      0.2825394365D+01  0.2347269535D+00
      0.6401216923D+00  0.8137573261D+00
 S   1 1.00       0.000000000000
      0.1612777588D+00  0.1000000000D+01
 ****
      8 0
 S   3 1.00       0.000000000000
      0.1873113696D+02  0.3349460434D-01
      0.2825394365D+01  0.2347269535D+00
      0.6401216923D+00  0.8137573261D+00
 S   1 1.00       0.000000000000
      0.1612777588D+00  0.1000000000D+01
 ****
      9 0
 S   3 1.00       0.000000000000
      0.1873113696D+02  0.3349460434D-01
      0.2825394365D+01  0.2347269535D+00
      0.6401216923D+00  0.8137573261D+00
 S   1 1.00       0.000000000000
      0.1612777588D+00  0.1000000000D+01
 ****
     10 0
 S   3 1.00       0.000000000000
      0.1873113696D+02  0.3349460434D-01
      0.2825394365D+01  0.2347269535D+00
      0.6401216923D+00  0.8137573261D+00
 S   1 1.00       0.000000000000
      0.1612777588D+00  0.1000000000D+01
 ****
     11 0
 S   3 1.00       0.000000000000
      0.1873113696D+02  0.3349460434D-01
      0.2825394365D+01  0.2347269535D+00
      0.6401216923D+00  0.8137573261D+00
 S   1 1.00       0.000000000000
      0.1612777588D+00  0.1000000000D+01
 ****
     12 0
 S   3 1.00       0.000000000000
      0.1873113696D+02  0.3349460434D-01
      0.2825394365D+01  0.2347269535D+00
      0.6401216923D+00  0.8137573261D+00
 S   1 1.00       0.000000000000
      0.1612777588D+00  0.1000000000D+01
 ****

 LdAtmC:  AtmChg=     6.000000     6.000000     6.000000     6.000000     6.000000
 LdAtmC:  AtmChg=     6.000000     1.000000     1.000000     1.000000     1.000000
 LdAtmC:  AtmChg=     1.000000     1.000000
 AtZEff=     -3.6000000     -3.6000000     -3.6000000     -3.6000000     -3.6000000
 AtZEff=     -3.6000000     -1.0000000     -1.0000000     -1.0000000     -1.0000000
 AtZEff=     -1.0000000     -1.0000000
 NEqShl: 
              1            2            3            4            5
     1            1           13            1           13            1
     2            2           14            2           14            2
     3            3           15            3           15            3
     4            4           16            4           16            4
     5            5           17           21            9           21
     6            6           18           22           10           22
     7            7           19           23           11           23
     8            8           20           24           12           24
     9            9           21           17            5           17
    10           10           22           18            6           18
    11           11           23           19            7           19
    12           12           24           20            8           20
    13           13            1           13            1           13
    14           14            2           14            2           14
    15           15            3           15            3           15
    16           16            4           16            4           16
    17           17            5            9           21            9
    18           18            6           10           22           10
    19           19            7           11           23           11
    20           20            8           12           24           12
    21           21            9            5           17            5
    22           22           10            6           18            6
    23           23           11            7           19            7
    24           24           12            8           20            8
    25           25           31           25           31           25
    26           26           32           26           32           26
    27           27           33           35           29           35
    28           28           34           36           30           36
    29           29           35           33           27           33
    30           30           36           34           28           34
    31           31           25           31           25           31
    32           32           26           32           26           32
    33           33           27           29           35           29
    34           34           28           30           36           30
    35           35           29           27           33           27
    36           36           30           28           34           28
              6            7            8            9           10
     1           13            1           13            5            9
     2           14            2           14            6           10
     3           15            3           15            7           11
     4           16            4           16            8           12
     5            9            5           17            9           13
     6           10            6           18           10           14
     7           11            7           19           11           15
     8           12            8           20           12           16
     9            5            9           21           13           17
    10            6           10           22           14           18
    11            7           11           23           15           19
    12            8           12           24           16           20
    13            1           13            1           17           21
    14            2           14            2           18           22
    15            3           15            3           19           23
    16            4           16            4           20           24
    17           21           17            5           21            1
    18           22           18            6           22            2
    19           23           19            7           23            3
    20           24           20            8           24            4
    21           17           21            9            1            5
    22           18           22           10            2            6
    23           19           23           11            3            7
    24           20           24           12            4            8
    25           31           25           31           27           29
    26           32           26           32           28           30
    27           29           27           33           29           31
    28           30           28           34           30           32
    29           27           29           35           31           33
    30           28           30           36           32           34
    31           25           31           25           33           35
    32           26           32           26           34           36
    33           35           33           27           35           25
    34           36           34           28           36           26
    35           33           35           29           25           27
    36           34           36           30           26           28
             11           12           13           14           15
     1           17           21           21           17            9
     2           18           22           22           18           10
     3           19           23           23           19           11
     4           20           24           24           20           12
     5           21            1           17           13            5
     6           22            2           18           14            6
     7           23            3           19           15            7
     8           24            4           20           16            8
     9            1            5           13            9            1
    10            2            6           14           10            2
    11            3            7           15           11            3
    12            4            8           16           12            4
    13            5            9            9            5           21
    14            6           10           10            6           22
    15            7           11           11            7           23
    16            8           12           12            8           24
    17            9           13            5            1           17
    18           10           14            6            2           18
    19           11           15            7            3           19
    20           12           16            8            4           20
    21           13           17            1           21           13
    22           14           18            2           22           14
    23           15           19            3           23           15
    24           16           20            4           24           16
    25           33           35           35           33           29
    26           34           36           36           34           30
    27           35           25           33           31           27
    28           36           26           34           32           28
    29           25           27           31           29           25
    30           26           28           32           30           26
    31           27           29           29           27           35
    32           28           30           30           28           36
    33           29           31           27           25           33
    34           30           32           28           26           34
    35           31           33           25           35           31
    36           32           34           26           36           32
             16           17           18           19           20
     1            5           21           17            9            5
     2            6           22           18           10            6
     3            7           23           19           11            7
     4            8           24           20           12            8
     5            1           17           13            5            1
     6            2           18           14            6            2
     7            3           19           15            7            3
     8            4           20           16            8            4
     9           21           13            9            1           21
    10           22           14           10            2           22
    11           23           15           11            3           23
    12           24           16           12            4           24
    13           17            9            5           21           17
    14           18           10            6           22           18
    15           19           11            7           23           19
    16           20           12            8           24           20
    17           13            5            1           17           13
    18           14            6            2           18           14
    19           15            7            3           19           15
    20           16            8            4           20           16
    21            9            1           21           13            9
    22           10            2           22           14           10
    23           11            3           23           15           11
    24           12            4           24           16           12
    25           27           35           33           29           27
    26           28           36           34           30           28
    27           25           33           31           27           25
    28           26           34           32           28           26
    29           35           31           29           25           35
    30           36           32           30           26           36
    31           33           29           27           35           33
    32           34           30           28           36           34
    33           31           27           25           33           31
    34           32           28           26           34           32
    35           29           25           35           31           29
    36           30           26           36           32           30
             21           22           23           24
     1            5            9           17           21
     2            6           10           18           22
     3            7           11           19           23
     4            8           12           20           24
     5            9           13           21            1
     6           10           14           22            2
     7           11           15           23            3
     8           12           16           24            4
     9           13           17            1            5
    10           14           18            2            6
    11           15           19            3            7
    12           16           20            4            8
    13           17           21            5            9
    14           18           22            6           10
    15           19           23            7           11
    16           20           24            8           12
    17           21            1            9           13
    18           22            2           10           14
    19           23            3           11           15
    20           24            4           12           16
    21            1            5           13           17
    22            2            6           14           18
    23            3            7           15           19
    24            4            8           16           20
    25           27           29           33           35
    26           28           30           34           36
    27           29           31           35           25
    28           30           32           36           26
    29           31           33           25           27
    30           32           34           26           28
    31           33           35           27           29
    32           34           36           28           30
    33           35           25           29           31
    34           36           26           30           32
    35           25           27           31           33
    36           26           28           32           34
 NEqBas: 
              1            2            3            4            5
     1            1           46            1           46            1
     2            2           47            2           47            2
     3            3          -48           -3           48           -3
     4            4          -49            4          -49            4
     5            5           50           -5          -50            5
     6            6           51            6           51            6
     7            7          -52           -7           52           -7
     8            8          -53            8          -53            8
     9            9           54           -9          -54            9
    10           10           55           10           55           10
    11           11           56           11           56           11
    12           12           57           12           57           12
    13           13           58          -13          -58          -13
    14           14          -59           14          -59          -14
    15           15          -60          -15           60           15
    16           16           61           76           31           76
    17           17           62           77           32           77
    18           18          -63          -78           33          -78
    19           19          -64           79          -34           79
    20           20           65          -80          -35           80
    21           21           66           81           36           81
    22           22          -67          -82           37          -82
    23           23          -68           83          -38           83
    24           24           69          -84          -39           84
    25           25           70           85           40           85
    26           26           71           86           41           86
    27           27           72           87           42           87
    28           28           73          -88          -43          -88
    29           29          -74           89          -44          -89
    30           30          -75          -90           45           90
    31           31           76           61           16           61
    32           32           77           62           17           62
    33           33          -78          -63           18          -63
    34           34          -79           64          -19           64
    35           35           80          -65          -20           65
    36           36           81           66           21           66
    37           37          -82          -67           22          -67
    38           38          -83           68          -23           68
    39           39           84          -69          -24           69
    40           40           85           70           25           70
    41           41           86           71           26           71
    42           42           87           72           27           72
    43           43           88          -73          -28          -73
    44           44          -89           74          -29          -74
    45           45          -90          -75           30           75
    46           46            1           46            1           46
    47           47            2           47            2           47
    48           48           -3          -48            3          -48
    49           49           -4           49           -4           49
    50           50            5          -50           -5           50
    51           51            6           51            6           51
    52           52           -7          -52            7          -52
    53           53           -8           53           -8           53
    54           54            9          -54           -9           54
    55           55           10           55           10           55
    56           56           11           56           11           56
    57           57           12           57           12           57
    58           58           13          -58          -13          -58
    59           59          -14           59          -14          -59
    60           60          -15          -60           15           60
    61           61           16           31           76           31
    62           62           17           32           77           32
    63           63          -18          -33           78          -33
    64           64          -19           34          -79           34
    65           65           20          -35          -80           35
    66           66           21           36           81           36
    67           67          -22          -37           82          -37
    68           68          -23           38          -83           38
    69           69           24          -39          -84           39
    70           70           25           40           85           40
    71           71           26           41           86           41
    72           72           27           42           87           42
    73           73           28          -43          -88          -43
    74           74          -29           44          -89          -44
    75           75          -30          -45           90           45
    76           76           31           16           61           16
    77           77           32           17           62           17
    78           78          -33          -18           63          -18
    79           79          -34           19          -64           19
    80           80           35          -20          -65           20
    81           81           36           21           66           21
    82           82          -37          -22           67          -22
    83           83          -38           23          -68           23
    84           84           39          -24          -69           24
    85           85           40           25           70           25
    86           86           41           26           71           26
    87           87           42           27           72           27
    88           88           43          -28          -73          -28
    89           89          -44           29          -74          -29
    90           90          -45          -30           75           30
    91           91           97           91           97           91
    92           92           98           92           98           92
    93           93           99          101           95          101
    94           94          100          102           96          102
    95           95          101           99           93           99
    96           96          102          100           94          100
    97           97           91           97           91           97
    98           98           92           98           92           98
    99           99           93           95          101           95
   100          100           94           96          102           96
   101          101           95           93           99           93
   102          102           96           94          100           94
              6            7            8
     1           46            1           46
     2           47            2           47
     3           48            3          -48
     4          -49            4          -49
     5           50           -5          -50
     6           51            6           51
     7           52            7          -52
     8          -53            8          -53
     9           54           -9          -54
    10           55           10           55
    11           56           11           56
    12           57           12           57
    13          -58           13           58
    14           59          -14           59
    15          -60          -15           60
    16           31           16           61
    17           32           17           62
    18           33           18          -63
    19          -34           19          -64
    20           35          -20          -65
    21           36           21           66
    22           37           22          -67
    23          -38           23          -68
    24           39          -24          -69
    25           40           25           70
    26           41           26           71
    27           42           27           72
    28          -43           28           73
    29           44          -29           74
    30          -45          -30           75
    31           16           31           76
    32           17           32           77
    33           18           33          -78
    34          -19           34          -79
    35           20          -35          -80
    36           21           36           81
    37           22           37          -82
    38          -23           38          -83
    39           24          -39          -84
    40           25           40           85
    41           26           41           86
    42           27           42           87
    43          -28           43           88
    44           29          -44           89
    45          -30          -45           90
    46            1           46            1
    47            2           47            2
    48            3           48           -3
    49           -4           49           -4
    50            5          -50           -5
    51            6           51            6
    52            7           52           -7
    53           -8           53           -8
    54            9          -54           -9
    55           10           55           10
    56           11           56           11
    57           12           57           12
    58          -13           58           13
    59           14          -59           14
    60          -15          -60           15
    61           76           61           16
    62           77           62           17
    63           78           63          -18
    64          -79           64          -19
    65           80          -65          -20
    66           81           66           21
    67           82           67          -22
    68          -83           68          -23
    69           84          -69          -24
    70           85           70           25
    71           86           71           26
    72           87           72           27
    73          -88           73           28
    74           89          -74           29
    75          -90          -75           30
    76           61           76           31
    77           62           77           32
    78           63           78          -33
    79          -64           79          -34
    80           65          -80          -35
    81           66           81           36
    82           67           82          -37
    83          -68           83          -38
    84           69          -84          -39
    85           70           85           40
    86           71           86           41
    87           72           87           42
    88          -73           88           43
    89           74          -89           44
    90          -75          -90           45
    91           97           91           97
    92           98           92           98
    93           95           93           99
    94           96           94          100
    95           93           95          101
    96           94           96          102
    97           91           97           91
    98           92           98           92
    99          101           99           93
   100          102          100           94
   101           99          101           95
   102          100          102           96
 There are    23 symmetry adapted cartesian basis functions of AG  symmetry.
   1         1  46   1  46  46   1  46   1
   2         2  47   2  47  47   2  47   2
   3         4 -49   4 -49 -49   4 -49   4
   4         6  51   6  51  51   6  51   6
   5         8 -53   8 -53 -53   8 -53   8
   6        10  55  10  55  55  10  55  10
   7        11  56  11  56  56  11  56  11
   8        12  57  12  57  57  12  57  12
   9        16  61  76  31  61  16  31  76
  10        17  62  77  32  62  17  32  77
  11        18 -63 -78  33 -63  18  33 -78
  12        19 -64  79 -34 -64  19 -34  79
  13        21  66  81  36  66  21  36  81
  14        22 -67 -82  37 -67  22  37 -82
  15        23 -68  83 -38 -68  23 -38  83
  16        25  70  85  40  70  25  40  85
  17        26  71  86  41  71  26  41  86
  18        27  72  87  42  72  27  42  87
  19        28  73 -88 -43  73  28 -43 -88
  20        91  97  91  97  97  91  97  91
  21        92  98  92  98  98  92  98  92
  22        93  99 101  95  99  93  95 101
  23        94 100 102  96 100  94  96 102
 There are    16 symmetry adapted cartesian basis functions of B1G symmetry.
  24         3 -48   3 -48 -48   3 -48   3
  25         7 -52   7 -52 -52   7 -52   7
  26        13  58  13  58  58  13  58  13
  27        16  61 -76 -31  61  16 -31 -76
  28        17  62 -77 -32  62  17 -32 -77
  29        18 -63  78 -33 -63  18 -33  78
  30        19 -64 -79  34 -64  19  34 -79
  31        21  66 -81 -36  66  21 -36 -81
  32        22 -67  82 -37 -67  22 -37  82
  33        23 -68 -83  38 -68  23  38 -83
  34        25  70 -85 -40  70  25 -40 -85
  35        26  71 -86 -41  71  26 -41 -86
  36        27  72 -87 -42  72  27 -42 -87
  37        28  73  88  43  73  28  43  88
  38        93  99-101 -95  99  93 -95-101
  39        94 100-102 -96 100  94 -96-102
 There are     5 symmetry adapted cartesian basis functions of B2G symmetry.
  40        14  59  14  59  59  14  59  14
  41        20 -65 -80  35 -65  20  35 -80
  42        24 -69 -84  39 -69  24  39 -84
  43        29  74  89  44  74  29  44  89
  44        30  75 -90 -45  75  30 -45 -90
 There are     7 symmetry adapted cartesian basis functions of B3G symmetry.
  45         5 -50   5 -50 -50   5 -50   5
  46         9 -54   9 -54 -54   9 -54   9
  47        15  60  15  60  60  15  60  15
  48        20 -65  80 -35 -65  20 -35  80
  49        24 -69  84 -39 -69  24 -39  84
  50        29  74 -89 -44  74  29 -44 -89
  51        30  75  90  45  75  30  45  90
 There are     5 symmetry adapted cartesian basis functions of AU  symmetry.
  52        14 -59  14 -59 -59  14 -59  14
  53        20  65 -80 -35  65  20 -35 -80
  54        24  69 -84 -39  69  24 -39 -84
  55        29 -74  89 -44 -74  29 -44  89
  56        30 -75 -90  45 -75  30  45 -90
 There are     7 symmetry adapted cartesian basis functions of B1U symmetry.
  57         5  50   5  50  50   5  50   5
  58         9  54   9  54  54   9  54   9
  59        15 -60  15 -60 -60  15 -60  15
  60        20  65  80  35  65  20  35  80
  61        24  69  84  39  69  24  39  84
  62        29 -74 -89  44 -74  29  44 -89
  63        30 -75  90 -45 -75  30 -45  90
 There are    23 symmetry adapted cartesian basis functions of B2U symmetry.
  64         1 -46   1 -46 -46   1 -46   1
  65         2 -47   2 -47 -47   2 -47   2
  66         4  49   4  49  49   4  49   4
  67         6 -51   6 -51 -51   6 -51   6
  68         8  53   8  53  53   8  53   8
  69        10 -55  10 -55 -55  10 -55  10
  70        11 -56  11 -56 -56  11 -56  11
  71        12 -57  12 -57 -57  12 -57  12
  72        16 -61  76 -31 -61  16 -31  76
  73        17 -62  77 -32 -62  17 -32  77
  74        18  63 -78 -33  63  18 -33 -78
  75        19  64  79  34  64  19  34  79
  76        21 -66  81 -36 -66  21 -36  81
  77        22  67 -82 -37  67  22 -37 -82
  78        23  68  83  38  68  23  38  83
  79        25 -70  85 -40 -70  25 -40  85
  80        26 -71  86 -41 -71  26 -41  86
  81        27 -72  87 -42 -72  27 -42  87
  82        28 -73 -88  43 -73  28  43 -88
  83        91 -97  91 -97 -97  91 -97  91
  84        92 -98  92 -98 -98  92 -98  92
  85        93 -99 101 -95 -99  93 -95 101
  86        94-100 102 -96-100  94 -96 102
 There are    16 symmetry adapted cartesian basis functions of B3U symmetry.
  87         3  48   3  48  48   3  48   3
  88         7  52   7  52  52   7  52   7
  89        13 -58  13 -58 -58  13 -58  13
  90        16 -61 -76  31 -61  16  31 -76
  91        17 -62 -77  32 -62  17  32 -77
  92        18  63  78  33  63  18  33  78
  93        19  64 -79 -34  64  19 -34 -79
  94        21 -66 -81  36 -66  21  36 -81
  95        22  67  82  37  67  22  37  82
  96        23  68 -83 -38  68  23 -38 -83
  97        25 -70 -85  40 -70  25  40 -85
  98        26 -71 -86  41 -71  26  41 -86
  99        27 -72 -87  42 -72  27  42 -87
 100        28 -73  88 -43 -73  28 -43  88
 101        93 -99-101  95 -99  93  95-101
 102        94-100-102  96-100  94  96-102
 Order= 1 2 3 4 8 7 6 5
 Reordered character table:
              1            2            3            4            5
     1            1            1            1            1            1
     2            2            1            1           -1           -1
     3            3            1           -1            1           -1
     4            4            1           -1           -1            1
     5            8            1           -1           -1            1
     6            7            1           -1            1           -1
     7            6            1            1           -1           -1
     8            5            1            1            1            1
              6            7            8            9
     1            1            1            1            1
     2            1            1           -1           -1
     3            1           -1            1           -1
     4            1           -1           -1            1
     5           -1            1            1           -1
     6           -1            1           -1            1
     7           -1           -1            1            1
     8           -1           -1           -1           -1
 NEqShl: 
              1            2            3            4            5
     1            1           13            1           13            1
     2            2           14            2           14            2
     3            3           15            3           15            3
     4            4           16            4           16            4
     5            5           17           21            9           21
     6            6           18           22           10           22
     7            7           19           23           11           23
     8            8           20           24           12           24
     9            9           21           17            5           17
    10           10           22           18            6           18
    11           11           23           19            7           19
    12           12           24           20            8           20
    13           13            1           13            1           13
    14           14            2           14            2           14
    15           15            3           15            3           15
    16           16            4           16            4           16
    17           17            5            9           21            9
    18           18            6           10           22           10
    19           19            7           11           23           11
    20           20            8           12           24           12
    21           21            9            5           17            5
    22           22           10            6           18            6
    23           23           11            7           19            7
    24           24           12            8           20            8
    25           25           31           25           31           25
    26           26           32           26           32           26
    27           27           33           35           29           35
    28           28           34           36           30           36
    29           29           35           33           27           33
    30           30           36           34           28           34
    31           31           25           31           25           31
    32           32           26           32           26           32
    33           33           27           29           35           29
    34           34           28           30           36           30
    35           35           29           27           33           27
    36           36           30           28           34           28
              6            7            8            9           10
     1           13            1           13            5            9
     2           14            2           14            6           10
     3           15            3           15            7           11
     4           16            4           16            8           12
     5            9            5           17            9           13
     6           10            6           18           10           14
     7           11            7           19           11           15
     8           12            8           20           12           16
     9            5            9           21           13           17
    10            6           10           22           14           18
    11            7           11           23           15           19
    12            8           12           24           16           20
    13            1           13            1           17           21
    14            2           14            2           18           22
    15            3           15            3           19           23
    16            4           16            4           20           24
    17           21           17            5           21            1
    18           22           18            6           22            2
    19           23           19            7           23            3
    20           24           20            8           24            4
    21           17           21            9            1            5
    22           18           22           10            2            6
    23           19           23           11            3            7
    24           20           24           12            4            8
    25           31           25           31           27           29
    26           32           26           32           28           30
    27           29           27           33           29           31
    28           30           28           34           30           32
    29           27           29           35           31           33
    30           28           30           36           32           34
    31           25           31           25           33           35
    32           26           32           26           34           36
    33           35           33           27           35           25
    34           36           34           28           36           26
    35           33           35           29           25           27
    36           34           36           30           26           28
             11           12           13           14           15
     1           17           21           21           17            9
     2           18           22           22           18           10
     3           19           23           23           19           11
     4           20           24           24           20           12
     5           21            1           17           13            5
     6           22            2           18           14            6
     7           23            3           19           15            7
     8           24            4           20           16            8
     9            1            5           13            9            1
    10            2            6           14           10            2
    11            3            7           15           11            3
    12            4            8           16           12            4
    13            5            9            9            5           21
    14            6           10           10            6           22
    15            7           11           11            7           23
    16            8           12           12            8           24
    17            9           13            5            1           17
    18           10           14            6            2           18
    19           11           15            7            3           19
    20           12           16            8            4           20
    21           13           17            1           21           13
    22           14           18            2           22           14
    23           15           19            3           23           15
    24           16           20            4           24           16
    25           33           35           35           33           29
    26           34           36           36           34           30
    27           35           25           33           31           27
    28           36           26           34           32           28
    29           25           27           31           29           25
    30           26           28           32           30           26
    31           27           29           29           27           35
    32           28           30           30           28           36
    33           29           31           27           25           33
    34           30           32           28           26           34
    35           31           33           25           35           31
    36           32           34           26           36           32
             16           17           18           19           20
     1            5           21           17            9            5
     2            6           22           18           10            6
     3            7           23           19           11            7
     4            8           24           20           12            8
     5            1           17           13            5            1
     6            2           18           14            6            2
     7            3           19           15            7            3
     8            4           20           16            8            4
     9           21           13            9            1           21
    10           22           14           10            2           22
    11           23           15           11            3           23
    12           24           16           12            4           24
    13           17            9            5           21           17
    14           18           10            6           22           18
    15           19           11            7           23           19
    16           20           12            8           24           20
    17           13            5            1           17           13
    18           14            6            2           18           14
    19           15            7            3           19           15
    20           16            8            4           20           16
    21            9            1           21           13            9
    22           10            2           22           14           10
    23           11            3           23           15           11
    24           12            4           24           16           12
    25           27           35           33           29           27
    26           28           36           34           30           28
    27           25           33           31           27           25
    28           26           34           32           28           26
    29           35           31           29           25           35
    30           36           32           30           26           36
    31           33           29           27           35           33
    32           34           30           28           36           34
    33           31           27           25           33           31
    34           32           28           26           34           32
    35           29           25           35           31           29
    36           30           26           36           32           30
             21           22           23           24
     1            5            9           17           21
     2            6           10           18           22
     3            7           11           19           23
     4            8           12           20           24
     5            9           13           21            1
     6           10           14           22            2
     7           11           15           23            3
     8           12           16           24            4
     9           13           17            1            5
    10           14           18            2            6
    11           15           19            3            7
    12           16           20            4            8
    13           17           21            5            9
    14           18           22            6           10
    15           19           23            7           11
    16           20           24            8           12
    17           21            1            9           13
    18           22            2           10           14
    19           23            3           11           15
    20           24            4           12           16
    21            1            5           13           17
    22            2            6           14           18
    23            3            7           15           19
    24            4            8           16           20
    25           27           29           33           35
    26           28           30           34           36
    27           29           31           35           25
    28           30           32           36           26
    29           31           33           25           27
    30           32           34           26           28
    31           33           35           27           29
    32           34           36           28           30
    33           35           25           29           31
    34           36           26           30           32
    35           25           27           31           33
    36           26           28           32           34
 NEqBas: 
              1            2            3            4            5
     1            1           46            1           46            1
     2            2           47            2           47            2
     3            3          -48           -3           48           -3
     4            4          -49            4          -49            4
     5            5           50           -5          -50            5
     6            6           51            6           51            6
     7            7          -52           -7           52           -7
     8            8          -53            8          -53            8
     9            9           54           -9          -54            9
    10           10           55           10           55           10
    11           11           56           11           56           11
    12           12           57           12           57           12
    13           13           58          -13          -58          -13
    14           14          -59           14          -59          -14
    15           15          -60          -15           60           15
    16           16           61           76           31           76
    17           17           62           77           32           77
    18           18          -63          -78           33          -78
    19           19          -64           79          -34           79
    20           20           65          -80          -35           80
    21           21           66           81           36           81
    22           22          -67          -82           37          -82
    23           23          -68           83          -38           83
    24           24           69          -84          -39           84
    25           25           70           85           40           85
    26           26           71           86           41           86
    27           27           72           87           42           87
    28           28           73          -88          -43          -88
    29           29          -74           89          -44          -89
    30           30          -75          -90           45           90
    31           31           76           61           16           61
    32           32           77           62           17           62
    33           33          -78          -63           18          -63
    34           34          -79           64          -19           64
    35           35           80          -65          -20           65
    36           36           81           66           21           66
    37           37          -82          -67           22          -67
    38           38          -83           68          -23           68
    39           39           84          -69          -24           69
    40           40           85           70           25           70
    41           41           86           71           26           71
    42           42           87           72           27           72
    43           43           88          -73          -28          -73
    44           44          -89           74          -29          -74
    45           45          -90          -75           30           75
    46           46            1           46            1           46
    47           47            2           47            2           47
    48           48           -3          -48            3          -48
    49           49           -4           49           -4           49
    50           50            5          -50           -5           50
    51           51            6           51            6           51
    52           52           -7          -52            7          -52
    53           53           -8           53           -8           53
    54           54            9          -54           -9           54
    55           55           10           55           10           55
    56           56           11           56           11           56
    57           57           12           57           12           57
    58           58           13          -58          -13          -58
    59           59          -14           59          -14          -59
    60           60          -15          -60           15           60
    61           61           16           31           76           31
    62           62           17           32           77           32
    63           63          -18          -33           78          -33
    64           64          -19           34          -79           34
    65           65           20          -35          -80           35
    66           66           21           36           81           36
    67           67          -22          -37           82          -37
    68           68          -23           38          -83           38
    69           69           24          -39          -84           39
    70           70           25           40           85           40
    71           71           26           41           86           41
    72           72           27           42           87           42
    73           73           28          -43          -88          -43
    74           74          -29           44          -89          -44
    75           75          -30          -45           90           45
    76           76           31           16           61           16
    77           77           32           17           62           17
    78           78          -33          -18           63          -18
    79           79          -34           19          -64           19
    80           80           35          -20          -65           20
    81           81           36           21           66           21
    82           82          -37          -22           67          -22
    83           83          -38           23          -68           23
    84           84           39          -24          -69           24
    85           85           40           25           70           25
    86           86           41           26           71           26
    87           87           42           27           72           27
    88           88           43          -28          -73          -28
    89           89          -44           29          -74          -29
    90           90          -45          -30           75           30
    91           91           97           91           97           91
    92           92           98           92           98           92
    93           93           99          101           95          101
    94           94          100          102           96          102
    95           95          101           99           93           99
    96           96          102          100           94          100
    97           97           91           97           91           97
    98           98           92           98           92           98
    99           99           93           95          101           95
   100          100           94           96          102           96
   101          101           95           93           99           93
   102          102           96           94          100           94
              6            7            8
     1           46            1           46
     2           47            2           47
     3           48            3          -48
     4          -49            4          -49
     5           50           -5          -50
     6           51            6           51
     7           52            7          -52
     8          -53            8          -53
     9           54           -9          -54
    10           55           10           55
    11           56           11           56
    12           57           12           57
    13          -58           13           58
    14           59          -14           59
    15          -60          -15           60
    16           31           16           61
    17           32           17           62
    18           33           18          -63
    19          -34           19          -64
    20           35          -20          -65
    21           36           21           66
    22           37           22          -67
    23          -38           23          -68
    24           39          -24          -69
    25           40           25           70
    26           41           26           71
    27           42           27           72
    28          -43           28           73
    29           44          -29           74
    30          -45          -30           75
    31           16           31           76
    32           17           32           77
    33           18           33          -78
    34          -19           34          -79
    35           20          -35          -80
    36           21           36           81
    37           22           37          -82
    38          -23           38          -83
    39           24          -39          -84
    40           25           40           85
    41           26           41           86
    42           27           42           87
    43          -28           43           88
    44           29          -44           89
    45          -30          -45           90
    46            1           46            1
    47            2           47            2
    48            3           48           -3
    49           -4           49           -4
    50            5          -50           -5
    51            6           51            6
    52            7           52           -7
    53           -8           53           -8
    54            9          -54           -9
    55           10           55           10
    56           11           56           11
    57           12           57           12
    58          -13           58           13
    59           14          -59           14
    60          -15          -60           15
    61           76           61           16
    62           77           62           17
    63           78           63          -18
    64          -79           64          -19
    65           80          -65          -20
    66           81           66           21
    67           82           67          -22
    68          -83           68          -23
    69           84          -69          -24
    70           85           70           25
    71           86           71           26
    72           87           72           27
    73          -88           73           28
    74           89          -74           29
    75          -90          -75           30
    76           61           76           31
    77           62           77           32
    78           63           78          -33
    79          -64           79          -34
    80           65          -80          -35
    81           66           81           36
    82           67           82          -37
    83          -68           83          -38
    84           69          -84          -39
    85           70           85           40
    86           71           86           41
    87           72           87           42
    88          -73           88           43
    89           74          -89           44
    90          -75          -90           45
    91           97           91           97
    92           98           92           98
    93           95           93           99
    94           96           94          100
    95           93           95          101
    96           94           96          102
    97           91           97           91
    98           92           98           92
    99          101           99           93
   100          102          100           94
   101           99          101           95
   102          100          102           96
 There are    23 symmetry adapted basis functions of AG  symmetry.
   1         1  46   1  46  46   1  46   1
   2         2  47   2  47  47   2  47   2
   3         4 -49   4 -49 -49   4 -49   4
   4         6  51   6  51  51   6  51   6
   5         8 -53   8 -53 -53   8 -53   8
   6        10  55  10  55  55  10  55  10
   7        11  56  11  56  56  11  56  11
   8        12  57  12  57  57  12  57  12
   9        16  61  76  31  61  16  31  76
  10        17  62  77  32  62  17  32  77
  11        18 -63 -78  33 -63  18  33 -78
  12        19 -64  79 -34 -64  19 -34  79
  13        21  66  81  36  66  21  36  81
  14        22 -67 -82  37 -67  22  37 -82
  15        23 -68  83 -38 -68  23 -38  83
  16        25  70  85  40  70  25  40  85
  17        26  71  86  41  71  26  41  86
  18        27  72  87  42  72  27  42  87
  19        28  73 -88 -43  73  28 -43 -88
  20        91  97  91  97  97  91  97  91
  21        92  98  92  98  98  92  98  92
  22        93  99 101  95  99  93  95 101
  23        94 100 102  96 100  94  96 102
 There are    16 symmetry adapted basis functions of B1G symmetry.
  24         3 -48   3 -48 -48   3 -48   3
  25         7 -52   7 -52 -52   7 -52   7
  26        13  58  13  58  58  13  58  13
  27        16  61 -76 -31  61  16 -31 -76
  28        17  62 -77 -32  62  17 -32 -77
  29        18 -63  78 -33 -63  18 -33  78
  30        19 -64 -79  34 -64  19  34 -79
  31        21  66 -81 -36  66  21 -36 -81
  32        22 -67  82 -37 -67  22 -37  82
  33        23 -68 -83  38 -68  23  38 -83
  34        25  70 -85 -40  70  25 -40 -85
  35        26  71 -86 -41  71  26 -41 -86
  36        27  72 -87 -42  72  27 -42 -87
  37        28  73  88  43  73  28  43  88
  38        93  99-101 -95  99  93 -95-101
  39        94 100-102 -96 100  94 -96-102
 There are     5 symmetry adapted basis functions of B2G symmetry.
  40        14  59  14  59  59  14  59  14
  41        20 -65 -80  35 -65  20  35 -80
  42        24 -69 -84  39 -69  24  39 -84
  43        29  74  89  44  74  29  44  89
  44        30  75 -90 -45  75  30 -45 -90
 There are     7 symmetry adapted basis functions of B3G symmetry.
  45         5 -50   5 -50 -50   5 -50   5
  46         9 -54   9 -54 -54   9 -54   9
  47        15  60  15  60  60  15  60  15
  48        20 -65  80 -35 -65  20 -35  80
  49        24 -69  84 -39 -69  24 -39  84
  50        29  74 -89 -44  74  29 -44 -89
  51        30  75  90  45  75  30  45  90
 There are     5 symmetry adapted basis functions of AU  symmetry.
  52        14 -59  14 -59 -59  14 -59  14
  53        20  65 -80 -35  65  20 -35 -80
  54        24  69 -84 -39  69  24 -39 -84
  55        29 -74  89 -44 -74  29 -44  89
  56        30 -75 -90  45 -75  30  45 -90
 There are     7 symmetry adapted basis functions of B1U symmetry.
  57         5  50   5  50  50   5  50   5
  58         9  54   9  54  54   9  54   9
  59        15 -60  15 -60 -60  15 -60  15
  60        20  65  80  35  65  20  35  80
  61        24  69  84  39  69  24  39  84
  62        29 -74 -89  44 -74  29  44 -89
  63        30 -75  90 -45 -75  30 -45  90
 There are    23 symmetry adapted basis functions of B2U symmetry.
  64         1 -46   1 -46 -46   1 -46   1
  65         2 -47   2 -47 -47   2 -47   2
  66         4  49   4  49  49   4  49   4
  67         6 -51   6 -51 -51   6 -51   6
  68         8  53   8  53  53   8  53   8
  69        10 -55  10 -55 -55  10 -55  10
  70        11 -56  11 -56 -56  11 -56  11
  71        12 -57  12 -57 -57  12 -57  12
  72        16 -61  76 -31 -61  16 -31  76
  73        17 -62  77 -32 -62  17 -32  77
  74        18  63 -78 -33  63  18 -33 -78
  75        19  64  79  34  64  19  34  79
  76        21 -66  81 -36 -66  21 -36  81
  77        22  67 -82 -37  67  22 -37 -82
  78        23  68  83  38  68  23  38  83
  79        25 -70  85 -40 -70  25 -40  85
  80        26 -71  86 -41 -71  26 -41  86
  81        27 -72  87 -42 -72  27 -42  87
  82        28 -73 -88  43 -73  28  43 -88
  83        91 -97  91 -97 -97  91 -97  91
  84        92 -98  92 -98 -98  92 -98  92
  85        93 -99 101 -95 -99  93 -95 101
  86        94-100 102 -96-100  94 -96 102
 There are    16 symmetry adapted basis functions of B3U symmetry.
  87         3  48   3  48  48   3  48   3
  88         7  52   7  52  52   7  52   7
  89        13 -58  13 -58 -58  13 -58  13
  90        16 -61 -76  31 -61  16  31 -76
  91        17 -62 -77  32 -62  17  32 -77
  92        18  63  78  33  63  18  33  78
  93        19  64 -79 -34  64  19 -34 -79
  94        21 -66 -81  36 -66  21  36 -81
  95        22  67  82  37  67  22  37  82
  96        23  68 -83 -38  68  23 -38 -83
  97        25 -70 -85  40 -70  25  40 -85
  98        26 -71 -86  41 -71  26  41 -86
  99        27 -72 -87  42 -72  27  42 -87
 100        28 -73  88 -43 -73  28 -43  88
 101        93 -99-101  95 -99  93  95-101
 102        94-100-102  96-100  94  96-102
 Order= 1 2 3 4 8 7 6 5
 Reordered character table:
              1            2            3            4            5
     1            1            1            1            1            1
[...]
 Symmetry B1G  KE= 3.763031655250D+01
 Symmetry B2G  KE= 2.299124228693D+00
 Symmetry B3G  KE= 1.181966194512D+00
 Symmetry AU   KE= 1.052321641176D-16
 Symmetry B1U  KE= 1.922467712537D+00
 Symmetry B2U  KE= 7.205052154297D+01
 Symmetry B3U  KE= 4.042208667168D+01
 Symmetry AG   SP= 5.376334956658D-15
 Symmetry B1G  SP= 1.514213821807D-14
 Symmetry B2G  SP=-4.220582217052D-15
 Symmetry B3G  SP= 1.000000000000D+00
 Symmetry AU   SP= 1.194321829371D-17
 Symmetry B1U  SP= 5.882291452975D-15
 Symmetry B2U  SP=-1.140662000618D-14
 Symmetry B3U  SP= 3.736640107033D-15
 Orbital energies and kinetic energies (alpha):
                                 1                 2
   1         O               -10.456105         15.875614
   2         O               -10.456097         15.874420
   3         O               -10.423847         15.874203
   4         O               -10.423833         15.874131
   5         O               -10.423311         15.886034
   6         O               -10.423310         15.883666
   7         (B2G)--O         -1.096214          1.497828
   8         O                -0.996912          1.645258
   9         O                -0.973769          1.633128
  10         (B2G)--O         -0.836610          1.513654
  11         (B2G)--O         -0.836581          1.519616
  12         (B2G)--O         -0.750369          0.988591
  13         O                -0.688465          1.377205
  14         O                -0.681682          1.464083
  15         O                -0.656648          1.246165
  16         O                -0.642310          1.239387
  17         O                -0.608153          0.977343
  18         (B2G)--O         -0.573070          1.438736
  19         (B2G)--O         -0.572577          1.410894
  20         O                -0.511075          1.181966
  21         O                -0.476925          1.152686
  22         V                -0.251639          1.444103
  23         V                -0.229609          1.401494
  24         (B2G)--V         -0.095569          0.926762
  25         V                -0.080066          1.737476
  26         V                -0.044163          0.987688
  27         V                -0.032996          0.982390
  28         (B2G)--V         -0.013875          1.405352
  29         (B2G)--V         -0.005936          1.411721
  30         V                 0.012434          1.259357
  31         (B2G)--V          0.085062          1.481817
  32         (B2G)--V          0.088400          1.419754
  33         V                 0.091826          1.650066
  34         V                 0.095736          1.608979
  35         V                 0.261163          1.442680
  36         V                 0.295323          1.955373
  37         (B2G)--V          0.311875          1.670023
  38         V                 0.311879          2.916026
  39         (B2G)--V          0.337013          2.127082
  40         V                 0.365499          1.977494
  41         (B2G)--V          0.367297          1.936680
  42         (B2G)--V          0.372344          2.375305
  43         (B2G)--V          0.380431          1.901636
  44         V                 0.387128          2.005784
  45         V                 0.396924          1.912279
  46         V                 0.405207          1.929967
  47         V                 0.437909          2.111303
  48         V                 0.451931          2.152631
  49         V                 0.527892          2.141101
  50         V                 0.632526          2.865581
  51         (B2G)--V          0.637627          2.657657
  52         (B2G)--V          0.649430          2.669789
  53         V                 0.666894          2.436838
  54         V                 0.677326          2.406669
  55         V                 0.716651          2.502784
  56         V                 0.716833          2.468022
  57         (B2G)--V          0.741014          2.750112
  58         (B2G)--V          0.742423          2.586437
  59         (B2G)--V          0.855176          2.055312
  60         (B2G)--V          0.867509          2.054709
  61         V                 0.908478          2.265805
  62         V                 0.917151          2.268208
  63         V                 0.984961          2.328463
  64         V                 1.008755          2.394709
  65         V                 1.146252          2.530327
  66         V                 1.220590          2.515852
  67         V                 1.223115          2.518938
  68         V                 1.227069          2.659596
  69         V                 1.241422          2.655006
  70         V                 1.251774          2.688507
  71         V                 1.275326          2.689590
  72         V                 1.508858          2.928525
  73         V                 1.544393          3.155666
  74         V                 1.639369          3.247142
  75         V                 1.682323          3.047623
  76         V                 1.746523          3.489910
  77         V                 1.762878          3.500142
  78         V                 1.813235          3.650412
  79         V                 1.818375          3.627989
  80         V                 1.889035          3.560414
  81         V                 1.891135          3.327334
  82         V                 1.904108          3.328286
  83         V                 1.911310          3.543436
  84         V                 2.044253          3.547233
  85         V                 2.059144          3.536374
  86         V                 2.069371          3.531196
  87         V                 2.298241          4.081765
  88         V                 2.314435          4.061702
  89         V                 2.397174          3.913965
  90         V                 2.459145          4.421218
  91         V                 2.468866          4.515853
  92         V                 2.469552          4.426268
  93         V                 2.480255          4.521152
  94         V                 2.525441          4.167447
  95         V                 2.770410          4.905418
  96         V                 3.168995          5.199756
  97         V                 3.836773         10.176618
  98         V                 3.864405         10.180600
  99         V                 3.886279         10.186289
 100         V                 4.081792         10.113438
 101         V                 4.098522         10.122044
 102         V                 4.424633         10.388569
 Orbital energies and kinetic energies (beta):
                                 1                 2
   1         O               -10.449740         15.886182
   2         O               -10.449738         15.885008
   3         O               -10.423424         15.875049
   4         O               -10.423410         15.874998
   5         O               -10.422877         15.884595
   6         O               -10.422875         15.886988
   7         O                -1.084950          1.493511
   8         O                -0.977401          1.633466
   9         O                -0.971456          1.632100
  10         O                -0.830717          1.514470
  11         O                -0.828110          1.498305
  12         O                -0.747882          0.983247
  13         O                -0.684138          1.362402
  14         O                -0.676975          1.465975
  15         O                -0.651988          1.251207
  16         O                -0.642069          1.238161
  17         O                -0.574966          0.945125
  18         O                -0.571274          1.434209
  19         O                -0.569234          1.417075
  20         O                -0.472037          1.146439
  21         V                -0.415185          1.127861
  22         V                -0.216191          1.396349
  23         V                -0.211708          1.387534
  24         (B2G)--V         -0.093709          0.929390
  25         V                -0.057058          1.702545
  26         V                -0.041472          0.989861
  27         V                -0.032903          0.982605
  28         (B2G)--V         -0.006286          1.356588
  29         (B2G)--V         -0.004234          1.396452
  30         V                 0.015944          1.233250
  31         (B2G)--V          0.090070          1.429432
  32         (B2G)--V          0.090118          1.498469
  33         V                 0.095743          1.634009
  34         V                 0.098799          1.601957
  35         V                 0.263333          1.441286
  36         (A2U)--V          0.309765          1.986180
  37         (B2G)--V          0.313975          1.672577
  38         (B1U)--V          0.323913          2.964549
  39         (B2G)--V          0.340245          2.111456
  40         (B2G)--V          0.376291          2.387665
  41         (B2G)--V          0.376672          1.729674
  42         (B2G)--V          0.383212          2.157017
  43         (E1G)--V          0.389617          2.011465
  44         (E1G)--V          0.389930          2.030412
  45         V                 0.407355          1.931465
  46         V                 0.407400          1.934981
  47         (E2U)--V          0.456731          2.157651
  48         (E2U)--V          0.457180          2.165787
  49         (B2G)--V          0.538082          2.175957
  50         V                 0.635095          2.882683
  51         (B2G)--V          0.641423          2.669639
  52         (B2G)--V          0.650177          2.671173
  53         V                 0.670363          2.434711
  54         V                 0.677669          2.408334
  55         V                 0.719314          2.478694
  56         V                 0.723287          2.471715
  57         (B2G)--V          0.742620          2.762260
  58         (B2G)--V          0.744225          2.587600
  59         (B2G)--V          0.864188          2.047083
  60         (B2G)--V          0.869468          2.051565
  61         V                 0.914701          2.267795
  62         V                 0.917633          2.269076
  63         V                 0.988649          2.327723
  64         (B1G)--V          1.024496          2.394188
  65         V                 1.160659          2.529037
  66         (E2G)--V          1.224545          2.512118
  67         (E2G)--V          1.228307          2.514504
  68         V                 1.247173          2.658930
  69         V                 1.249708          2.658300
  70         (E1G)--V          1.275333          2.688450
  71         (E1G)--V          1.279316          2.689372
  72         (A1G)--V          1.528424          2.928642
  73         V                 1.546823          3.155362
  74         V                 1.640937          3.246271
  75         V                 1.688505          3.039569
  76         V                 1.755828          3.510749
  77         V                 1.764176          3.503082
  78         V                 1.817653          3.651755
  79         V                 1.825776          3.644553
  80         (E2U)--V          1.910190          3.328828
  81         (E2U)--V          1.912208          3.328747
  82         V                 1.914174          3.538967
  83         V                 1.914518          3.541355
  84         V                 2.066684          3.548540
  85         V                 2.070575          3.549379
  86         V                 2.078468          3.519512
  87         V                 2.318382          4.058337
  88         V                 2.318563          4.052398
  89         (A1U)--V          2.412032          3.914296
  90         V                 2.463455          4.428941
  91         V                 2.470537          4.428695
  92         V                 2.473144          4.518549
  93         V                 2.481537          4.520170
  94         V                 2.539046          4.162202
  95         V                 2.773084          4.906818
  96         (B1U)--V          3.172425          5.199097
  97         V                 3.844601         10.177523
  98         V                 3.877049         10.180371
  99         V                 3.888090         10.185085
 100         V                 4.093389         10.113824
 101         V                 4.100789         10.121173
 102         V                 4.431413         10.388955
 Total kinetic energy from orbitals= 2.298631208186D+02
                          Isotropic Fermi Contact Couplings
        Atom                 a.u.       MegaHertz       Gauss      10(-4) cm-1
     1  C(13)              0.04322      48.59088      17.33843      16.20817
     2  C(13)             -0.00361      -4.05454      -1.44676      -1.35245
     3  C(13)             -0.00361      -4.05454      -1.44676      -1.35245
     4  C(13)              0.04322      48.59088      17.33843      16.20817
     5  C(13)             -0.00361      -4.05454      -1.44676      -1.35245
     6  C(13)             -0.00361      -4.05454      -1.44676      -1.35245
     7  H(1)              -0.00708     -31.63120     -11.28680     -10.55103
     8  H(1)              -0.00100      -4.45934      -1.59120      -1.48748
     9  H(1)              -0.00100      -4.45934      -1.59120      -1.48748
    10  H(1)              -0.00708     -31.63120     -11.28680     -10.55103
    11  H(1)              -0.00100      -4.45934      -1.59120      -1.48748
    12  H(1)              -0.00100      -4.45934      -1.59120      -1.48748
 --------------------------------------------------------
       Center         ----  Spin Dipole Couplings  ----
                      3XX-RR        3YY-RR        3ZZ-RR
 --------------------------------------------------------
     1   Atom       -0.249470     -0.246152      0.495622
     2   Atom       -0.022070     -0.029467      0.051537
     3   Atom       -0.022070     -0.029467      0.051537
     4   Atom       -0.249470     -0.246152      0.495622
     5   Atom       -0.022070     -0.029467      0.051537
     6   Atom       -0.022070     -0.029467      0.051537
     7   Atom       -0.032536      0.039146     -0.006609
     8   Atom        0.014016     -0.007876     -0.006140
     9   Atom        0.014016     -0.007876     -0.006140
    10   Atom       -0.032536      0.039146     -0.006609
    11   Atom        0.014016     -0.007876     -0.006140
    12   Atom        0.014016     -0.007876     -0.006140
 --------------------------------------------------------
                        XY            XZ            YZ
 --------------------------------------------------------
     1   Atom        0.000000      0.000000      0.000000
     2   Atom       -0.004789      0.000000      0.000000
     3   Atom        0.004789      0.000000      0.000000
     4   Atom        0.000000      0.000000      0.000000
     5   Atom       -0.004789      0.000000      0.000000
     6   Atom        0.004789      0.000000      0.000000
     7   Atom        0.000000      0.000000      0.000000
     8   Atom        0.003175      0.000000      0.000000
     9   Atom       -0.003175      0.000000      0.000000
    10   Atom        0.000000      0.000000      0.000000
    11   Atom        0.003175      0.000000      0.000000
    12   Atom       -0.003175      0.000000      0.000000
 --------------------------------------------------------


 ---------------------------------------------------------------------------------
              Anisotropic Spin Dipole Couplings in Principal Axis System
 ---------------------------------------------------------------------------------

       Atom             a.u.   MegaHertz   Gauss  10(-4) cm-1        Axes

              Baa    -0.2495   -33.477   -11.945   -11.167  1.0000  0.0000  0.0000
     1 C(13)  Bbb    -0.2462   -33.031   -11.786   -11.018  0.0000  1.0000  0.0000
              Bcc     0.4956    66.508    23.732    22.185  0.0000  0.0000  1.0000
 
              Baa    -0.0318    -4.270    -1.524    -1.424  0.4409  0.8976  0.0000
     2 C(13)  Bbb    -0.0197    -2.646    -0.944    -0.883  0.8976 -0.4409  0.0000
              Bcc     0.0515     6.916     2.468     2.307  0.0000  0.0000  1.0000
 
              Baa    -0.0318    -4.270    -1.524    -1.424 -0.4409  0.8976  0.0000
     3 C(13)  Bbb    -0.0197    -2.646    -0.944    -0.883  0.8976  0.4409  0.0000
              Bcc     0.0515     6.916     2.468     2.307  0.0000  0.0000  1.0000
 
              Baa    -0.2495   -33.477   -11.945   -11.167  1.0000  0.0000  0.0000
     4 C(13)  Bbb    -0.2462   -33.031   -11.786   -11.018  0.0000  1.0000  0.0000
              Bcc     0.4956    66.508    23.732    22.185  0.0000  0.0000  1.0000
 
              Baa    -0.0318    -4.270    -1.524    -1.424  0.4409  0.8976  0.0000
     5 C(13)  Bbb    -0.0197    -2.646    -0.944    -0.883  0.8976 -0.4409  0.0000
              Bcc     0.0515     6.916     2.468     2.307  0.0000  0.0000  1.0000
 
              Baa    -0.0318    -4.270    -1.524    -1.424 -0.4409  0.8976  0.0000
     6 C(13)  Bbb    -0.0197    -2.646    -0.944    -0.883  0.8976  0.4409  0.0000
              Bcc     0.0515     6.916     2.468     2.307  0.0000  0.0000  1.0000
 
              Baa    -0.0325   -17.360    -6.194    -5.791  1.0000  0.0000  0.0000
     7 H(1)   Bbb    -0.0066    -3.527    -1.258    -1.176  0.0000  0.0000  1.0000
              Bcc     0.0391    20.886     7.453     6.967  0.0000  1.0000  0.0000
 
              Baa    -0.0083    -4.443    -1.585    -1.482 -0.1407  0.9901  0.0000
     8 H(1)   Bbb    -0.0061    -3.276    -1.169    -1.093  0.0000  0.0000  1.0000
              Bcc     0.0145     7.719     2.754     2.575  0.9901  0.1407  0.0000
 
              Baa    -0.0083    -4.443    -1.585    -1.482  0.1407  0.9901  0.0000
     9 H(1)   Bbb    -0.0061    -3.276    -1.169    -1.093  0.0000  0.0000  1.0000
              Bcc     0.0145     7.719     2.754     2.575  0.9901 -0.1407  0.0000
 
              Baa    -0.0325   -17.360    -6.194    -5.791  1.0000  0.0000  0.0000
    10 H(1)   Bbb    -0.0066    -3.527    -1.258    -1.176  0.0000  0.0000  1.0000
              Bcc     0.0391    20.886     7.453     6.967  0.0000  1.0000  0.0000
 
              Baa    -0.0083    -4.443    -1.585    -1.482 -0.1407  0.9901  0.0000
    11 H(1)   Bbb    -0.0061    -3.276    -1.169    -1.093  0.0000  0.0000  1.0000
              Bcc     0.0145     7.719     2.754     2.575  0.9901  0.1407  0.0000
 
              Baa    -0.0083    -4.443    -1.585    -1.482  0.1407  0.9901  0.0000
    12 H(1)   Bbb    -0.0061    -3.276    -1.169    -1.093  0.0000  0.0000  1.0000
              Bcc     0.0145     7.719     2.754     2.575  0.9901 -0.1407  0.0000
 

 ---------------------------------------------------------------------------------


 Test job not archived.
 1|1|UNPC-LAB102|SP|UB3LYP|6-31G(d)|C6H6(1+,2)|11032|26-Mar-2025|0||# b
 3lyp/6-31g(d) pop=full gfinput iop(3/33=1)||Title Card Required||1,2|C
 ,0,0.,1.4014,0.|C,0,1.213648,0.7007,0.|C,0,1.213648,-0.7007,0.|C,0,0.,
 -1.4014,0.|C,0,-1.213648,-0.7007,0.|C,0,-1.213648,0.7007,0.|H,0,0.,2.4
 714,0.|H,0,2.140295,1.2357,0.|H,0,2.140295,-1.2357,0.|H,0,0.,-2.4714,0
 .|H,0,-2.140295,-1.2357,0.|H,0,-2.140295,1.2357,0.||Version=IA32W-G16R
 evA.03|HF=-231.9171871|S2=0.761928|S2-1=0.|S2A=0.75003|RMSD=4.082e-009
 |Dipole=0.,0.,0.|Quadrupole=2.4640912,4.80227,-7.2663612,0.,0.,0.|PG=D
 06H [3C2'(H1C1.C1H1)]||@


 YOU SHOULDN'T LET PEOPLE DRIVE YOU CRAZY
 WHEN YOU KNOW IT'S WITHIN WALKING DISTANCE.
 Job cpu time:       0 days  0 hours  0 minutes  7.0 seconds.
 Elapsed time:       0 days  0 hours  0 minutes  7.0 seconds.
 File lengths (MBytes):  RWF=      9 Int=      0 D2E=      0 Chk=      2 Scr=      1
 Normal termination of Gaussian 16 at Wed Mar 26 10:55:46 2025.
