[Molden Format]
[Porgram] BDF
[BDF variables]
ENERGY=          -232.11765915
-V/T=               2.00652826
[N_ATOMS]
           12
[Atoms]  AU
C     1    6       2.634199        0.158311       -0.000002
C     2    6       1.179937        2.360413       -0.000105
C     3    6      -1.454105        2.202018        0.000084
C     4    6      -2.634196       -0.158414       -0.000017
C     5    6      -1.180027       -2.360370       -0.000082
C     6    6       1.454192       -2.201960        0.000078
H     7    1       4.683536        0.281553        0.000049
H     8    1       2.097999        4.196749       -0.000051
H     9    1      -2.585570        3.915132        0.000170
H    10    1      -4.683550       -0.281390        0.000033
H    11    1      -2.097859       -4.196823       -0.000059
H    12    1       2.585440       -3.915214        0.000123
[5D7F9G]
[GTO]
    1
    s    6
   0.304752488E+04   0.183473709E-02
   0.457369518E+03   0.140373230E-01
   0.103948685E+03   0.688426218E-01
   0.292101553E+02   0.232184439E+00
   0.928666296E+01   0.467941349E+00
   0.316392696E+01   0.362311989E+00
    s    3
   0.786827235E+01  -0.119332424E+00
   0.188128854E+01  -0.160854156E+00
   0.544249260E+00   0.114345644E+01
    s    1
   0.168714480E+00   0.100000000E+01
    p    3
   0.786827235E+01   0.689990671E-01
   0.188128854E+01   0.316423960E+00
   0.544249260E+00   0.744308291E+00
    p    1
   0.168714480E+00   0.100000000E+01
    d    1
   0.800000000E+00   0.100000000E+01

    2
    s    6
   0.304752488E+04   0.183473709E-02
   0.457369518E+03   0.140373230E-01
   0.103948685E+03   0.688426218E-01
   0.292101553E+02   0.232184439E+00
   0.928666296E+01   0.467941349E+00
   0.316392696E+01   0.362311989E+00
    s    3
   0.786827235E+01  -0.119332424E+00
   0.188128854E+01  -0.160854156E+00
   0.544249260E+00   0.114345644E+01
    s    1
   0.168714480E+00   0.100000000E+01
    p    3
   0.786827235E+01   0.689990671E-01
   0.188128854E+01   0.316423960E+00
   0.544249260E+00   0.744308291E+00
    p    1
   0.168714480E+00   0.100000000E+01
    d    1
   0.800000000E+00   0.100000000E+01

    3
    s    6
   0.304752488E+04   0.183473709E-02
   0.457369518E+03   0.140373230E-01
   0.103948685E+03   0.688426218E-01
   0.292101553E+02   0.232184439E+00
   0.928666296E+01   0.467941349E+00
   0.316392696E+01   0.362311989E+00
    s    3
   0.786827235E+01  -0.119332424E+00
   0.188128854E+01  -0.160854156E+00
   0.544249260E+00   0.114345644E+01
    s    1
   0.168714480E+00   0.100000000E+01
    p    3
   0.786827235E+01   0.689990671E-01
   0.188128854E+01   0.316423960E+00
   0.544249260E+00   0.744308291E+00
    p    1
   0.168714480E+00   0.100000000E+01
    d    1
   0.800000000E+00   0.100000000E+01

    4
    s    6
   0.304752488E+04   0.183473709E-02
   0.457369518E+03   0.140373230E-01
   0.103948685E+03   0.688426218E-01
   0.292101553E+02   0.232184439E+00
   0.928666296E+01   0.467941349E+00
   0.316392696E+01   0.362311989E+00
    s    3
   0.786827235E+01  -0.119332424E+00
   0.188128854E+01  -0.160854156E+00
   0.544249260E+00   0.114345644E+01
    s    1
   0.168714480E+00   0.100000000E+01
    p    3
   0.786827235E+01   0.689990671E-01
   0.188128854E+01   0.316423960E+00
   0.544249260E+00   0.744308291E+00
    p    1
   0.168714480E+00   0.100000000E+01
    d    1
   0.800000000E+00   0.100000000E+01

    5
    s    6
   0.304752488E+04   0.183473709E-02
   0.457369518E+03   0.140373230E-01
   0.103948685E+03   0.688426218E-01
   0.292101553E+02   0.232184439E+00
   0.928666296E+01   0.467941349E+00
   0.316392696E+01   0.362311989E+00
    s    3
   0.786827235E+01  -0.119332424E+00
   0.188128854E+01  -0.160854156E+00
   0.544249260E+00   0.114345644E+01
    s    1
   0.168714480E+00   0.100000000E+01
    p    3
   0.786827235E+01   0.689990671E-01
   0.188128854E+01   0.316423960E+00
   0.544249260E+00   0.744308291E+00
    p    1
   0.168714480E+00   0.100000000E+01
    d    1
   0.800000000E+00   0.100000000E+01

    6
    s    6
   0.304752488E+04   0.183473709E-02
   0.457369518E+03   0.140373230E-01
   0.103948685E+03   0.688426218E-01
   0.292101553E+02   0.232184439E+00
   0.928666296E+01   0.467941349E+00
   0.316392696E+01   0.362311989E+00
    s    3
   0.786827235E+01  -0.119332424E+00
   0.188128854E+01  -0.160854156E+00
   0.544249260E+00   0.114345644E+01
    s    1
   0.168714480E+00   0.100000000E+01
    p    3
   0.786827235E+01   0.689990671E-01
   0.188128854E+01   0.316423960E+00
   0.544249260E+00   0.744308291E+00
    p    1
   0.168714480E+00   0.100000000E+01
    d    1
   0.800000000E+00   0.100000000E+01

    7
    s    3
   0.187311370E+02   0.334946040E-01
   0.282539437E+01   0.234726950E+00
   0.640121690E+00   0.813757330E+00
    s    1
   0.161277760E+00   0.100000000E+01
    p    1
   0.110000000E+01   0.100000000E+01

    8
    s    3
   0.187311370E+02   0.334946040E-01
   0.282539437E+01   0.234726950E+00
   0.640121690E+00   0.813757330E+00
    s    1
   0.161277760E+00   0.100000000E+01
    p    1
   0.110000000E+01   0.100000000E+01

    9
    s    3
   0.187311370E+02   0.334946040E-01
   0.282539437E+01   0.234726950E+00
   0.640121690E+00   0.813757330E+00
    s    1
   0.161277760E+00   0.100000000E+01
    p    1
   0.110000000E+01   0.100000000E+01

   10
    s    3
   0.187311370E+02   0.334946040E-01
   0.282539437E+01   0.234726950E+00
   0.640121690E+00   0.813757330E+00
    s    1
   0.161277760E+00   0.100000000E+01
    p    1
   0.110000000E+01   0.100000000E+01

   11
    s    3
   0.187311370E+02   0.334946040E-01
   0.282539437E+01   0.234726950E+00
   0.640121690E+00   0.813757330E+00
    s    1
   0.161277760E+00   0.100000000E+01
    p    1
   0.110000000E+01   0.100000000E+01

   12
    s    3
   0.187311370E+02   0.334946040E-01
   0.282539437E+01   0.234726950E+00
   0.640121690E+00   0.813757330E+00
    s    1
   0.161277760E+00   0.100000000E+01
    p    1
   0.110000000E+01   0.100000000E+01

[MO]
 Sym= A   
 Ene=       -10.179543
 Spin= Alpha
 Occup=       2.000000
   1       -0.405615911
   2       -0.013088404
   3        0.004712266
   4       -0.000747407
   5       -0.000043137
   6       -0.000000010
   7        0.000579575
   8        0.000029354
   9       -0.000000033
  10        0.000000108
  11       -0.000000006
  12       -0.000000053
  13       -0.000614978
  14       -0.000076190
  15       -0.405750308
  16       -0.013091995
  17        0.004707497
  18       -0.000334733
  19       -0.000670142
  20       -0.000000039
  21        0.000258083
  22        0.000522415
  23        0.000000235
  24       -0.000000408
  25       -0.000000052
  26       -0.000000049
  27        0.000371636
  28       -0.000496643
  29       -0.404573727
  30       -0.013041255
  31        0.004635345
  32        0.000411093
  33       -0.000629666
  34       -0.000000004
  35       -0.000325758
  36        0.000507797
  37       -0.000000190
  38       -0.000005005
  39       -0.000000033
  40        0.000000005
  41        0.000241368
  42        0.000574242
  43       -0.409145755
  44       -0.013214112
  45        0.004775247
  46        0.000748466
  47        0.000041130
  48       -0.000000021
  49       -0.000570460
  50       -0.000025001
  51        0.000000071
  52        0.000000904
  53        0.000000022
  54        0.000000049
  55       -0.000618346
  56       -0.000077844
  57       -0.408293201
  58       -0.013182688
  59        0.004754125
  60        0.000329830
  61        0.000673307
  62       -0.000000018
  63       -0.000244976
  64       -0.000520768
  65        0.000000118
  66        0.000000212
  67        0.000000042
  68        0.000000024
  69        0.000369704
  70       -0.000501228
  71       -0.403547222
  72       -0.013004597
  73        0.004616098
  74       -0.000417011
  75        0.000625465
  76       -0.000000001
  77        0.000339348
  78       -0.000502617
  79       -0.000000105
  80       -0.000005271
  81        0.000000032
  82       -0.000000006
  83        0.000246831
  84        0.000570825
  85        0.000931538
  86       -0.001685876
  87       -0.000716399
  88       -0.000042832
  89       -0.000000016
  90        0.000931963
  91       -0.001686652
  92       -0.000320890
  93       -0.000642227
  94       -0.000000045
  95        0.000930552
  96       -0.001686640
  97        0.000394300
  98       -0.000597481
  99       -0.000000010
 100        0.000939375
 101       -0.001693237
 102        0.000722919
 103        0.000043017
 104       -0.000000025
 105        0.000937602
 106       -0.001691845
 107        0.000322600
 108        0.000646618
 109       -0.000000023
 110        0.000928278
 111       -0.001684586
 112       -0.000393570
 113        0.000595694
 114       -0.000000003
 Sym= A   
 Ene=       -10.179346
 Spin= Alpha
 Occup=       2.000000
   1       -0.511832018
   2       -0.018235914
   3        0.009233101
   4       -0.000168395
   5        0.000549374
   6       -0.000000016
   7       -0.001336806
   8       -0.001157806
   9       -0.000000103
  10        0.000119365
  11        0.000000014
  12       -0.000000025
  13       -0.000452052
  14       -0.000513775
  15       -0.483857530
  16       -0.017237282
  17        0.008709202
  18        0.000533681
  19       -0.000410124
  20       -0.000000071
  21       -0.001727265
  22       -0.000609552
  23        0.000000254
  24        0.000112287
  25        0.000000042
  26       -0.000000043
  27       -0.000141612
  28       -0.000709979
  29        0.025621649
  30        0.000914290
  31       -0.000447106
  32        0.001016193
  33        0.000677774
  34       -0.000000005
  35       -0.002000564
  36       -0.001241928
  37       -0.000000088
  38       -0.000004868
  39       -0.000000128
  40       -0.000000034
  41        0.000906637
  42       -0.000415592
  43        0.510293301
  44        0.018192134
  45       -0.009237872
  46       -0.000163206
  47        0.000551447
  48        0.000000025
  49       -0.001348427
  50       -0.001162949
  51        0.000000059
  52       -0.000120985
  53        0.000000009
  54       -0.000000010
  55        0.000447763
  56        0.000514485
  57        0.481788127
  58        0.017172969
  59       -0.008695255
  60        0.000537868
  61       -0.000406802
  62        0.000000052
  63       -0.001735725
  64       -0.000613628
  65       -0.000000200
  66       -0.000112987
  67        0.000000035
  68       -0.000000018
  69        0.000145426
  70        0.000707780
  71       -0.029556312
  72       -0.001049568
  73        0.000525227
  74        0.001013692
  75        0.000680664
  76        0.000000004
  77       -0.002004135
  78       -0.001234181
  79        0.000000089
  80        0.000007162
  81       -0.000000104
  82       -0.000000023
  83       -0.000904874
  84        0.000418450
  85        0.001136372
  86       -0.001060917
  87       -0.000945217
  88       -0.000022281
  89       -0.000000018
  90        0.001074245
  91       -0.001004837
  92       -0.000362940
  93       -0.000817207
  94       -0.000000049
  95       -0.000057167
  96        0.000051952
  97        0.000036770
  98        0.000081235
  99        0.000000010
 100       -0.001132306
 101        0.001051734
 102       -0.000942495
 103       -0.000021866
 104        0.000000022
 105       -0.001069210
 106        0.000994947
 107       -0.000361012
 108       -0.000814015
 109        0.000000029
 110        0.000065401
 111       -0.000064236
 112        0.000032933
 113        0.000086954
 114       -0.000000009
 Sym= A   
 Ene=       -10.179343
 Spin= Alpha
 Occup=       2.000000
   1       -0.264390613
   2       -0.009428830
   3        0.004845066
   4       -0.000001963
   5       -0.001088643
   6        0.000000001
   7       -0.000885240
   8        0.002043585
   9        0.000000186
  10        0.000064570
  11       -0.000000089
  12       -0.000000003
  13       -0.000365103
  14        0.000849170
  15        0.311742874
  16        0.011117721
  17       -0.005699791
  18        0.000954806
  19       -0.000389126
  20        0.000000044
  21       -0.001372603
  22        0.001683890
  23       -0.000000300
  24       -0.000075468
  25        0.000000122
  26        0.000000006
  27       -0.000855851
  28       -0.000257323
  29        0.572288635
  30        0.020387915
  31       -0.010255447
  32       -0.000131738
  33        0.000093066
  34       -0.000000031
  35       -0.000753930
  36        0.001345850
  37        0.000000346
  38       -0.000131374
  39       -0.000000004
  40        0.000000037
  41       -0.000268169
  42       -0.000507115
  43        0.264166821
  44        0.009424546
  45       -0.004852033
  46       -0.000000214
  47       -0.001089705
  48        0.000000009
  49       -0.000889383
  50        0.002046415
  51       -0.000000214
  52       -0.000065324
  53       -0.000000081
  54       -0.000000026
  55        0.000364400
  56       -0.000850618
  57       -0.313144695
  58       -0.011168615
  59        0.005735816
  60        0.000954825
  61       -0.000388945
  62       -0.000000028
  63       -0.001369852
  64        0.001689159
  65        0.000000263
  66        0.000076959
  67        0.000000097
  68        0.000000010
  69        0.000856519
  70        0.000256793
  71       -0.572446762
  72       -0.020390292
  73        0.010247035
  74       -0.000133457
  75        0.000093661
  76        0.000000036
  77       -0.000748923
  78        0.001343696
  79       -0.000000313
  80        0.000130631
  81        0.000000009
  82        0.000000014
  83        0.000270014
  84        0.000507450
  85        0.000586625
  86       -0.000541002
  87       -0.000482922
  88       -0.000096258
  89       -0.000000030
  90       -0.000691761
  91        0.000637857
  92        0.000314042
  93        0.000486174
  94        0.000000043
  95       -0.001270439
  96        0.001189763
  97       -0.000585355
  98        0.000879805
  99        0.000000020
 100       -0.000586028
 101        0.000539057
 102       -0.000482663
 103       -0.000096334
 104        0.000000033
 105        0.000694676
 106       -0.000641427
 107        0.000315180
 108        0.000488550
 109       -0.000000030
 110        0.001271025
 111       -0.001191664
 112       -0.000585543
 113        0.000880001
 114       -0.000000000
 Sym= A   
 Ene=       -10.178893
 Spin= Alpha
 Occup=       2.000000
   1        0.510361330
   2        0.019698649
   3       -0.017904573
   4       -0.000445451
   5        0.000402292
   6       -0.000000030
   7        0.004359026
   8       -0.000845268
   9        0.000000063
  10       -0.000875192
  11        0.000000040
  12       -0.000000068
  13       -0.000084358
  14       -0.000420510
  15       -0.481399712
  16       -0.018578677
  17        0.016880796
  18       -0.000280265
  19        0.000582529
  20       -0.000000116
  21       -0.000632229
  22       -0.004214351
  23        0.000000374
  24        0.000825166
  25       -0.000000044
  26        0.000000036
  27        0.000313151
  28        0.000392610
  29       -0.030861616
  30       -0.001192029
  31        0.001117769
  32        0.000769302
  33        0.000537830
  34       -0.000000031
  35       -0.001866609
  36       -0.001568487
  37        0.000000028
  38        0.000052744
  39       -0.000000130
  40       -0.000000089
  41        0.000817761
  42       -0.000357880
  43        0.512108160
  44        0.019775168
  45       -0.018066047
  46        0.000448804
  47       -0.000401769
  48       -0.000000008
  49       -0.004424094
  50        0.000840240
  51       -0.000000004
  52       -0.000880696
  53       -0.000000024
  54        0.000000047
  55       -0.000087040
  56       -0.000420714
  57       -0.483750715
  58       -0.018676794
  59        0.017053318
  60        0.000277832
  61       -0.000584947
  62       -0.000000085
  63        0.000664467
  64        0.004273079
  65        0.000000296
  66        0.000830828
  67        0.000000022
  68       -0.000000026
  69        0.000311282
  70        0.000393819
  71       -0.027781874
  72       -0.001068922
  73        0.000934269
  74       -0.000771390
  75       -0.000536086
  76       -0.000000029
  77        0.001905512
  78        0.001512242
  79        0.000000034
  80        0.000047170
  81        0.000000102
  82        0.000000072
  83        0.000818891
  84       -0.000356871
  85       -0.000922438
  86        0.000677982
  87        0.000922167
  88        0.000100608
  89        0.000000027
  90        0.000870138
  91       -0.000640840
  92       -0.000438887
  93       -0.000757644
  94       -0.000000059
  95        0.000056227
  96       -0.000037170
  97        0.000113214
  98        0.000007860
  99       -0.000000004
 100       -0.000925861
 101        0.000670585
 102       -0.000925082
 103       -0.000100716
 104        0.000000032
 105        0.000874909
 106       -0.000634684
 107        0.000440593
 108        0.000761308
 109       -0.000000036
 110        0.000049992
 111       -0.000041635
 112       -0.000110373
 113       -0.000012243
 114       -0.000000003
 Sym= A   
 Ene=       -10.178889
 Spin= Alpha
 Occup=       2.000000
   1        0.260440233
   2        0.010061167
   3       -0.009174857
   4       -0.000167474
   5       -0.000849638
   6        0.000000072
   7        0.002078770
   8        0.002290229
   9       -0.000000092
  10       -0.000448685
  11        0.000000013
  12       -0.000000016
  13       -0.000165619
  14        0.000782853
  15        0.311640080
  16        0.012038821
  17       -0.010994134
  18       -0.000822861
  19        0.000120183
  20        0.000000120
  21        0.003010288
  22        0.001465335
  23       -0.000000310
  24       -0.000536639
  25       -0.000000133
  26        0.000000059
  27        0.000651501
  28        0.000383351
  29       -0.575343413
  30       -0.022202390
  31        0.020214377
  32       -0.000300718
  33        0.000365604
  34        0.000000124
  35        0.002786803
  36       -0.003990981
  37       -0.000000448
  38        0.000985585
  39        0.000000091
  40       -0.000000061
  41       -0.000102059
  42       -0.000119567
  43        0.259986814
  44        0.010047894
  45       -0.009197477
  46        0.000168398
  47        0.000847122
  48        0.000000078
  49       -0.002092389
  50       -0.002286375
  51       -0.000000123
  52       -0.000449673
  53       -0.000000015
  54        0.000000044
  55       -0.000166903
  56        0.000780527
  57        0.309604060
  58        0.011962240
  59       -0.010924115
  60        0.000821539
  61       -0.000120231
  62        0.000000103
  63       -0.002999247
  64       -0.001447536
  65       -0.000000258
  66       -0.000534774
  67        0.000000110
  68       -0.000000041
  69        0.000651243
  70        0.000381997
  71       -0.575144883
  72       -0.022191826
  73        0.020178664
  74        0.000297134
  75       -0.000366915
  76        0.000000118
  77       -0.002772779
  78        0.003981656
  79       -0.000000403
  80        0.000984288
  81       -0.000000066
  82        0.000000033
  83       -0.000098777
  84       -0.000119990
  85       -0.000470318
  86        0.000341047
  87        0.000477329
  88       -0.000059650
  89        0.000000021
  90       -0.000563074
  91        0.000406463
  92        0.000178617
  93        0.000543209
  94        0.000000041
  95        0.001040783
  96       -0.000762510
  97        0.000571157
  98       -0.000874163
  99       -0.000000026
 100       -0.000469093
 101        0.000337502
 102       -0.000476302
 103        0.000059580
 104        0.000000022
 105       -0.000558591
 106        0.000405066
 107       -0.000176973
 108       -0.000539828
 109        0.000000027
 110        0.001040466
 111       -0.000764821
 112       -0.000571148
 113        0.000873831
 114       -0.000000001
 Sym= A   
 Ene=       -10.178686
 Spin= Alpha
 Occup=       2.000000
   1       -0.406801871
   2       -0.016880514
   3        0.029335238
   4        0.000524259
   5        0.000034786
   6        0.000000015
   7       -0.011343425
   8       -0.000687628
   9       -0.000000127
  10        0.000951389
  11       -0.000000023
  12        0.000000120
  13        0.000347862
  14        0.000039450
  15        0.406674277
  16        0.016874416
  17       -0.029324353
  18       -0.000236730
  19       -0.000468436
  20        0.000000099
  21        0.005082314
  22        0.010160400
  23       -0.000000758
  24       -0.000950604
  25       -0.000000041
  26        0.000000051
  27        0.000211020
  28       -0.000278732
  29       -0.407873849
  30       -0.016912082
  31        0.029316473
  32       -0.000290957
  33        0.000434218
  34        0.000000090
  35        0.006263946
  36       -0.009469309
  37       -0.000000875
  38        0.000948383
  39        0.000000066
  40        0.000000006
  41       -0.000138943
  42       -0.000317252
  43        0.403426235
  44        0.016750041
  45       -0.029215920
  46        0.000521379
  47        0.000035260
  48        0.000000023
  49       -0.011314570
  50       -0.000687066
  51       -0.000000054
  52       -0.000945551
  53       -0.000000035
  54        0.000000113
  55       -0.000347028
  56       -0.000038570
  57       -0.404267325
  58       -0.016781607
  59        0.029240120
  60       -0.000239004
  61       -0.000465137
  62       -0.000000056
  63        0.005080932
  64        0.010138500
  65        0.000000567
  66        0.000946502
  67       -0.000000055
  68        0.000000032
  69       -0.000213460
  70        0.000276148
  71        0.408902810
  72        0.016951692
  73       -0.029352258
  74       -0.000286286
  75        0.000438257
  76       -0.000000059
  77        0.006255075
  78       -0.009485397
  79        0.000000704
  80       -0.000950119
  81        0.000000061
  82        0.000000007
  83        0.000133823
  84        0.000319696
  85        0.000817680
  86        0.001019571
  87       -0.000689359
  88       -0.000041281
  89       -0.000000027
  90       -0.000817573
  91       -0.001019268
  92        0.000308662
  93        0.000617525
  94        0.000000091
  95        0.000820901
  96        0.001015324
  97        0.000381419
  98       -0.000578152
  99       -0.000000001
 100       -0.000811583
 101       -0.001023964
 102       -0.000683248
 103       -0.000040775
 104        0.000000040
 105        0.000813208
 106        0.001022500
 107        0.000306314
 108        0.000613813
 109       -0.000000055
 110       -0.000822774
 111       -0.001013910
 112        0.000382927
 113       -0.000579395
 114       -0.000000015
 Sym= A   
 Ene=        -0.842957
 Spin= Alpha
 Occup=       2.000000
   1       -0.093546961
   2        0.176296507
   3        0.110190366
   4       -0.061907073
   5       -0.003726790
   6       -0.000000112
   7       -0.008858989
   8       -0.000530043
   9       -0.000000064
  10       -0.008142683
  11        0.000000158
  12       -0.000000524
  13       -0.001349173
  14       -0.000163029
  15       -0.093547032
  16        0.176298232
  17        0.110181483
  18       -0.027734767
  19       -0.055469890
  20        0.000006619
  21       -0.003962693
  22       -0.007933288
  23        0.000001180
  24       -0.008142310
  25       -0.000000556
  26       -0.000000547
  27        0.000816026
  28       -0.001087901
  29       -0.093548504
  30        0.176295639
  31        0.110214575
  32        0.034181103
  33       -0.051745984
  34       -0.000005634
  35        0.004902705
  36       -0.007424615
  37       -0.000000963
  38       -0.008144231
  39       -0.000000710
  40        0.000000611
  41        0.000533863
  42        0.001248875
  43       -0.093546608
  44        0.176296059
  45        0.110189866
  46        0.061907889
  47        0.003710727
  48        0.000001052
  49        0.008858938
  50        0.000531492
  51        0.000000245
  52       -0.008142661
  53       -0.000000004
  54        0.000000491
  55       -0.001349053
  56       -0.000163835
  57       -0.093546962
  58        0.176298266
  59        0.110181240
  60        0.027720675
  61        0.055476949
  62        0.000005072
  63        0.003963803
  64        0.007932667
  65        0.000000782
  66       -0.008142304
  67        0.000000512
  68        0.000000405
  69        0.000815413
  70       -0.001088349
  71       -0.093548815
  72        0.176296155
  73        0.110214986
  74       -0.034167776
  75        0.051754901
  76       -0.000004971
  77       -0.004904383
  78        0.007423548
  79       -0.000000768
  80       -0.008144248
  81        0.000000607
  82       -0.000000489
  83        0.000533141
  84        0.001249193
  85        0.036302018
  86        0.007630969
  87       -0.003953572
  88       -0.000237846
  89       -0.000000075
  90        0.036302353
  91        0.007628819
  92       -0.001771283
  93       -0.003542804
  94       -0.000000022
  95        0.036303212
  96        0.007639982
  97        0.002182682
  98       -0.003304619
  99       -0.000000180
 100        0.036301873
 101        0.007630978
 102        0.003953594
 103        0.000237184
 104       -0.000000070
 105        0.036302297
 106        0.007628797
 107        0.001770704
 108        0.003543089
 109        0.000000015
 110        0.036303399
 111        0.007640011
 112       -0.002182138
 113        0.003304998
 114       -0.000000120
 Sym= A   
 Ene=        -0.736263
 Spin= Alpha
 Occup=       2.000000
   1       -0.124302708
   2        0.241093951
   3        0.178660220
   4       -0.025546156
   5        0.031601612
   6       -0.000000538
   7        0.004404811
   8        0.005277057
   9        0.000000066
  10       -0.007808413
  11        0.000000313
  12       -0.000000669
  13       -0.002967618
  14       -0.003357168
  15       -0.094677251
  16        0.183634739
  17        0.136086634
  18        0.061987542
  19       -0.051083286
  20        0.000005724
  21        0.012193182
  22       -0.002083988
  23        0.000001172
  24       -0.005947659
  25        0.000000251
  26       -0.000000445
  27       -0.004104848
  28       -0.006268535
  29        0.029612828
  30       -0.057433125
  31       -0.042571632
  32        0.089859995
  33        0.066073734
  34        0.000000287
  35        0.014665434
  36        0.008355955
  37        0.000000031
  38        0.001861185
  39       -0.000000573
  40       -0.000000533
  41        0.008905936
  42       -0.004670222
  43        0.124308280
  44       -0.241105325
  45       -0.178665747
  46       -0.025550974
  47        0.031639015
  48       -0.000001092
  49        0.004408910
  50        0.005276698
  51       -0.000000352
  52        0.007808347
  53        0.000000175
  54       -0.000000577
  55        0.002967366
  56        0.003359987
  57        0.094690439
  58       -0.183661164
  59       -0.136099245
  60        0.062010531
  61       -0.051101326
  62       -0.000003948
  63        0.012197181
  64       -0.002075073
  65       -0.000000784
  66        0.005947476
  67        0.000000121
  68       -0.000000330
  69        0.004106390
  70        0.006270015
  71       -0.029631360
  72        0.057470037
  73        0.042588787
  74        0.089862926
  75        0.066085919
  76       -0.000000205
  77        0.014672952
  78        0.008344258
  79       -0.000000066
  80       -0.001860892
  81       -0.000000510
  82       -0.000000439
  83       -0.008906432
  84        0.004670769
  85        0.076128596
  86        0.020911552
  87       -0.006912424
  88       -0.000048876
  89       -0.000000157
  90        0.057986225
  91        0.015927872
  92       -0.001575966
  93       -0.005090217
  94       -0.000000042
  95       -0.018140339
  96       -0.004989867
  97        0.000122407
  98        0.002052008
  99        0.000000078
 100       -0.076129966
 101       -0.020910155
 102       -0.006912659
 103       -0.000047663
 104        0.000000137
 105       -0.057989573
 106       -0.015924456
 107       -0.001575323
 108       -0.005090988
 109       -0.000000008
 110        0.018144911
 111        0.004984864
 112        0.000122347
 113        0.002052630
 114       -0.000000046
 Sym= A   
 Ene=        -0.736255
 Spin= Alpha
 Occup=       2.000000
   1       -0.037572156
   2        0.072871146
   3        0.053999133
   4       -0.000550591
   5       -0.109756874
   6        0.000002572
   7        0.002416384
   8       -0.016444283
   9        0.000000435
  10       -0.002359616
  11       -0.000000101
  12       -0.000000187
  13       -0.002185542
  14        0.009664099
  15        0.088876992
  16       -0.172383567
  17       -0.127739669
  18        0.082176609
  19       -0.022214147
  20       -0.000007084
  21        0.009772382
  22       -0.008659204
  23       -0.000001323
  24        0.005582222
  25        0.000001016
  26       -0.000000083
  27       -0.007442648
  28       -0.002590461
  29        0.126435767
  30       -0.245228124
  31       -0.181731270
  32       -0.035020586
  33        0.005631491
  34        0.000006727
  35       -0.000655169
  36       -0.006168098
  37        0.000000959
  38        0.007942524
  39        0.000000960
  40       -0.000000491
  41       -0.003499386
  42       -0.002210040
  43        0.037554066
  44       -0.072835164
  45       -0.053982380
  46       -0.000543018
  47       -0.109744740
  48       -0.000002851
  49        0.002402704
  50       -0.016444659
  51       -0.000000438
  52        0.002359908
  53       -0.000000103
  54       -0.000000334
  55        0.002185088
  56       -0.009663279
  57       -0.088862900
  58        0.172355637
  59        0.127726469
  60        0.082149801
  61       -0.022207647