 Entering Link 1 = C:\G16W\l1.exe PID=      3968.
  
 Copyright (c) 1988,1990,1992,1993,1995,1998,2003,2009,2016,
            Gaussian, Inc.  All Rights Reserved.
  
 This is part of the Gaussian(R) 16 program.  It is based on
 the Gaussian(R) 09 system (copyright 2009, Gaussian, Inc.),
 the Gaussian(R) 03 system (copyright 2003, Gaussian, Inc.),
 the Gaussian(R) 98 system (copyright 1998, Gaussian, Inc.),
 the Gaussian(R) 94 system (copyright 1995, Gaussian, Inc.),
 the Gaussian 92(TM) system (copyright 1992, Gaussian, Inc.),
 the Gaussian 90(TM) system (copyright 1990, Gaussian, Inc.),
 the Gaussian 88(TM) system (copyright 1988, Gaussian, Inc.),
 the Gaussian 86(TM) system (copyright 1986, Carnegie Mellon
 University), and the Gaussian 82(TM) system (copyright 1983,
 Carnegie Mellon University). Gaussian is a federally registered
 trademark of Gaussian, Inc.
  
 This software contains proprietary and confidential information,
 including trade secrets, belonging to Gaussian, Inc.
  
 This software is provided under written license and may be
 used, copied, transmitted, or stored only in accord with that
 written license.
  
 The following legend is applicable only to US Government
 contracts under FAR:
  
                    RESTRICTED RIGHTS LEGEND
  
 Use, reproduction and disclosure by the US Government is
 subject to restrictions as set forth in subparagraphs (a)
 and (c) of the Commercial Computer Software - Restricted
 Rights clause in FAR 52.227-19.
  
 Gaussian, Inc.
 340 Quinnipiac St., Bldg. 40, Wallingford CT 06492
  
  
 ---------------------------------------------------------------
 Warning -- This program may not be used in any manner that
 competes with the business of Gaussian, Inc. or will provide
 assistance to any competitor of Gaussian, Inc.  The licensee
 of this program is prohibited from giving any competitor of
 Gaussian, Inc. access to this program.  By using this program,
 the user acknowledges that Gaussian, Inc. is engaged in the
 business of creating and licensing software in the field of
 computational chemistry and represents and warrants to the
 licensee that it is not a competitor of Gaussian, Inc. and that
 it will not use this program in any manner prohibited above.
 ---------------------------------------------------------------
  

 Cite this work as:
 Gaussian 16, Revision A.03,
 M. J. Frisch, G. W. Trucks, H. B. Schlegel, G. E. Scuseria, 
 M. A. Robb, J. R. Cheeseman, G. Scalmani, V. Barone, 
 G. A. Petersson, H. Nakatsuji, X. Li, M. Caricato, A. V. Marenich, 
 J. Bloino, B. G. Janesko, R. Gomperts, B. Mennucci, H. P. Hratchian, 
 J. V. Ortiz, A. F. Izmaylov, J. L. Sonnenberg, D. Williams-Young, 
 F. Ding, F. Lipparini, F. Egidi, J. Goings, B. Peng, A. Petrone, 
 T. Henderson, D. Ranasinghe, V. G. Zakrzewski, J. Gao, N. Rega, 
 G. Zheng, W. Liang, M. Hada, M. Ehara, K. Toyota, R. Fukuda, 
 J. Hasegawa, M. Ishida, T. Nakajima, Y. Honda, O. Kitao, H. Nakai, 
 T. Vreven, K. Throssell, J. A. Montgomery, Jr., J. E. Peralta, 
 F. Ogliaro, M. J. Bearpark, J. J. Heyd, E. N. Brothers, K. N. Kudin, 
 V. N. Staroverov, T. A. Keith, R. Kobayashi, J. Normand, 
 K. Raghavachari, A. P. Rendell, J. C. Burant, S. S. Iyengar, 
 J. Tomasi, M. Cossi, J. M. Millam, M. Klene, C. Adamo, R. Cammi, 
 J. W. Ochterski, R. L. Martin, K. Morokuma, O. Farkas, 
 J. B. Foresman, and D. J. Fox, Gaussian, Inc., Wallingford CT, 2016.
 
 ******************************************
 Gaussian 16:  IA32W-G16RevA.03 25-Dec-2016
                01-Apr-2025 
 ******************************************
 %chk=D:\gfile\pywfn\C6H6_opt.chk
 --------------------------
 # opt b3lyp/6-31g(d) nosym
 --------------------------
 1/18=20,19=15,26=3,38=1/1,3;
 2/9=110,12=2,15=1,17=6,18=5,40=1/2;
 3/5=1,6=6,7=1,11=2,25=1,30=1,71=1,74=-5/1,2,3;
 4//1;
 5/5=2,38=5/2;
 6/7=2,8=2,9=2,10=2,28=1/1;
 7/30=1/1,2,3,16;
 1/18=20,19=15,26=3/3(2);
 2/9=110,15=1/2;
 99//99;
 2/9=110,15=1/2;
 3/5=1,6=6,7=1,11=2,25=1,30=1,71=1,74=-5/1,2,3;
 4/5=5,16=3,69=1/1;
 5/5=2,38=5/2;
 7/30=1/1,2,3,16;
 1/18=20,19=15,26=3/3(-5);
 2/9=110,15=1/2;
 6/7=2,8=2,9=2,10=2,19=2,28=1/1;
 99/9=1/99;
 -------------------
 Title Card Required
 -------------------
 Symbolic Z-matrix:
 Charge =  0 Multiplicity = 1
 C                    -0.08318   1.35337   0. 
 C                     1.13047   0.65267   0. 
 C                     1.13047  -0.74873   0. 
 C                    -0.08318  -1.44943   0. 
 C                    -1.29683  -0.74873   0. 
 C                    -1.29683   0.65267   0. 
 H                    -0.08318   2.42337   0. 
 H                     2.22348   1.28373   0. 
 H                     2.05711  -1.28373   0. 
 H                    -0.08318  -2.51943   0. 
 H                    -2.22348  -1.28373   0. 
 H                    -2.22348   1.18767   0. 
 

 GradGradGradGradGradGradGradGradGradGradGradGradGradGradGradGradGradGrad
 Berny optimization.
 Initialization pass.
                           ----------------------------
                           !    Initial Parameters    !
                           ! (Angstroms and Degrees)  !
 --------------------------                            --------------------------
 ! Name  Definition              Value          Derivative Info.                !
 --------------------------------------------------------------------------------
 ! R1    R(1,2)                  1.4014         estimate D2E/DX2                !
 ! R2    R(1,6)                  1.4014         estimate D2E/DX2                !
 ! R3    R(1,7)                  1.07           estimate D2E/DX2                !
 ! R4    R(2,3)                  1.4014         estimate D2E/DX2                !
 ! R5    R(2,8)                  1.2621         estimate D2E/DX2                !
 ! R6    R(3,4)                  1.4014         estimate D2E/DX2                !
 ! R7    R(3,9)                  1.07           estimate D2E/DX2                !
 ! R8    R(4,5)                  1.4014         estimate D2E/DX2                !
 ! R9    R(4,10)                 1.07           estimate D2E/DX2                !
 ! R10   R(5,6)                  1.4014         estimate D2E/DX2                !
 ! R11   R(5,11)                 1.07           estimate D2E/DX2                !
 ! R12   R(6,12)                 1.07           estimate D2E/DX2                !
 ! A1    A(2,1,6)              120.0            estimate D2E/DX2                !
 ! A2    A(2,1,7)              120.0            estimate D2E/DX2                !
 ! A3    A(6,1,7)              120.0            estimate D2E/DX2                !
 ! A4    A(1,2,3)              120.0            estimate D2E/DX2                !
 ! A5    A(1,2,8)              120.0            estimate D2E/DX2                !
 ! A6    A(3,2,8)              120.0            estimate D2E/DX2                !
 ! A7    A(2,3,4)              120.0            estimate D2E/DX2                !
 ! A8    A(2,3,9)              120.0            estimate D2E/DX2                !
 ! A9    A(4,3,9)              120.0            estimate D2E/DX2                !
 ! A10   A(3,4,5)              120.0            estimate D2E/DX2                !
 ! A11   A(3,4,10)             120.0            estimate D2E/DX2                !
 ! A12   A(5,4,10)             120.0            estimate D2E/DX2                !
 ! A13   A(4,5,6)              120.0            estimate D2E/DX2                !
 ! A14   A(4,5,11)             120.0            estimate D2E/DX2                !
 ! A15   A(6,5,11)             120.0            estimate D2E/DX2                !
 ! A16   A(1,6,5)              120.0            estimate D2E/DX2                !
 ! A17   A(1,6,12)             120.0            estimate D2E/DX2                !
 ! A18   A(5,6,12)             120.0            estimate D2E/DX2                !
 ! D1    D(6,1,2,3)              0.0            estimate D2E/DX2                !
 ! D2    D(6,1,2,8)            180.0            estimate D2E/DX2                !
 ! D3    D(7,1,2,3)            180.0            estimate D2E/DX2                !
 ! D4    D(7,1,2,8)              0.0            estimate D2E/DX2                !
 ! D5    D(2,1,6,5)              0.0            estimate D2E/DX2                !
 ! D6    D(2,1,6,12)           180.0            estimate D2E/DX2                !
 ! D7    D(7,1,6,5)            180.0            estimate D2E/DX2                !
 ! D8    D(7,1,6,12)             0.0            estimate D2E/DX2                !
 ! D9    D(1,2,3,4)              0.0            estimate D2E/DX2                !
 ! D10   D(1,2,3,9)            180.0            estimate D2E/DX2                !
 ! D11   D(8,2,3,4)            180.0            estimate D2E/DX2                !
 ! D12   D(8,2,3,9)              0.0            estimate D2E/DX2                !
 ! D13   D(2,3,4,5)              0.0            estimate D2E/DX2                !
 ! D14   D(2,3,4,10)           180.0            estimate D2E/DX2                !
 ! D15   D(9,3,4,5)            180.0            estimate D2E/DX2                !
 ! D16   D(9,3,4,10)             0.0            estimate D2E/DX2                !
 ! D17   D(3,4,5,6)              0.0            estimate D2E/DX2                !
 ! D18   D(3,4,5,11)           180.0            estimate D2E/DX2                !
 ! D19   D(10,4,5,6)           180.0            estimate D2E/DX2                !
 ! D20   D(10,4,5,11)            0.0            estimate D2E/DX2                !
 ! D21   D(4,5,6,1)              0.0            estimate D2E/DX2                !
 ! D22   D(4,5,6,12)           180.0            estimate D2E/DX2                !
 ! D23   D(11,5,6,1)           180.0            estimate D2E/DX2                !
 ! D24   D(11,5,6,12)            0.0            estimate D2E/DX2                !
 --------------------------------------------------------------------------------
 Trust Radius=3.00D-01 FncErr=1.00D-07 GrdErr=1.00D-06 EigMax=2.50D+02 EigMin=1.00D-04
 Number of steps in this run=     64 maximum allowed number of steps=    100.
 GradGradGradGradGradGradGradGradGradGradGradGradGradGradGradGradGradGrad

                          Input orientation:                          
 ---------------------------------------------------------------------
 Center     Atomic      Atomic             Coordinates (Angstroms)
 Number     Number       Type             X           Y           Z
 ---------------------------------------------------------------------
      1          6           0       -0.083182    1.353375    0.000000
      2          6           0        1.130466    0.652675    0.000000
      3          6           0        1.130466   -0.748725    0.000000
      4          6           0       -0.083182   -1.449425    0.000000
      5          6           0       -1.296830   -0.748725    0.000000
      6          6           0       -1.296830    0.652675    0.000000
      7          1           0       -0.083182    2.423375    0.000000
      8          1           0        2.223477    1.283725    0.000000
      9          1           0        2.057113   -1.283725    0.000000
     10          1           0       -0.083182   -2.519425    0.000000
     11          1           0       -2.223477   -1.283725    0.000000
     12          1           0       -2.223477    1.187675    0.000000
 ---------------------------------------------------------------------
                    Distance matrix (angstroms):
                    1          2          3          4          5
     1  C    0.000000
     2  C    1.401400   0.000000
     3  C    2.427296   1.401400   0.000000
     4  C    2.802800   2.427296   1.401400   0.000000
     5  C    2.427296   2.802800   2.427296   1.401400   0.000000
     6  C    1.401400   2.427296   2.802800   2.427296   1.401400
     7  H    1.070000   2.146700   3.396345   3.872800   3.396345
     8  H    2.307710   1.262100   2.307710   3.576420   4.064900
     9  H    3.396345   2.146700   1.070000   2.146700   3.396345
    10  H    3.872800   3.396345   2.146700   1.070000   2.146700
    11  H    3.396345   3.872800   3.396345   2.146700   1.070000
    12  H    2.146700   3.396345   3.872800   3.396345   2.146700
                    6          7          8          9         10
     6  C    0.000000
     7  H    2.146700   0.000000
     8  H    3.576420   2.572834   0.000000
     9  H    3.872800   4.280590   2.572834   0.000000
    10  H    3.396345   4.942800   4.447991   2.471400   0.000000
    11  H    2.146700   4.280590   5.134900   4.280590   2.471400
    12  H    1.070000   2.471400   4.447991   4.942800   4.280590
                   11         12
    11  H    0.000000
    12  H    2.471400   0.000000
 Symmetry turned off by external request.
 Stoichiometry    C6H6
 Framework group  CS[SG(C6H6)]
 Deg. of freedom    21
 Full point group                 CS      NOp   2
 Rotational constants (GHZ):           5.6677156           5.6052530           2.8181556
 Standard basis: 6-31G(d) (6D, 7F)
   102 basis functions,   192 primitive gaussians,   102 cartesian basis functions
    21 alpha electrons       21 beta electrons
       nuclear repulsion energy       202.2603550972 Hartrees.
 NAtoms=   12 NActive=   12 NUniq=   12 SFac= 1.00D+00 NAtFMM=   60 NAOKFM=F Big=F
 Integral buffers will be    262144 words long.
 Raffenetti 2 integral format.
 Two-electron integral symmetry is turned off.
 One-electron integrals computed using PRISM.
 NBasis=   102 RedAO= T EigKep=  5.46D-04  NBF=   102
 NBsUse=   102 1.00D-06 EigRej= -1.00D+00 NBFU=   102
 ExpMin= 1.61D-01 ExpMax= 3.05D+03 ExpMxC= 4.57D+02 IAcc=3 IRadAn=         5 AccDes= 0.00D+00
 Harris functional with IExCor=  402 and IRadAn=       5 diagonalized for initial guess.
 HarFok:  IExCor=  402 AccDes= 0.00D+00 IRadAn=         5 IDoV= 1 UseB2=F ITyADJ=14
 ICtDFT=  3500011 ScaDFX=  1.000000  1.000000  1.000000  1.000000
 FoFCou: FMM=F IPFlag=           0 FMFlag=      100000 FMFlg1=           0
         NFxFlg=           0 DoJE=T BraDBF=F KetDBF=T FulRan=T
         wScrn=  0.000000 ICntrl=       500 IOpCl=  0 I1Cent=   200000004 NGrid=           0
         NMat0=    1 NMatS0=      1 NMatT0=    0 NMatD0=    1 NMtDS0=    0 NMtDT0=    0
 Symmetry not used in FoFCou.
 Keep R1 ints in memory in canonical form, NReq=14720685.
 Requested convergence on RMS density matrix=1.00D-08 within 128 cycles.
 Requested convergence on MAX density matrix=1.00D-06.
 Requested convergence on             energy=1.00D-06.
 No special actions if energy rises.
 Integral accuracy reduced to 1.0D-05 until final iterations.
 Initial convergence to 1.0D-05 achieved.  Increase integral accuracy.
 SCF Done:  E(RB3LYP) =  -232.233302107     A.U. after   12 cycles
            NFock= 12  Conv=0.34D-08     -V/T= 2.0107

 **********************************************************************

            Population analysis using the SCF density.

 **********************************************************************

 Alpha  occ. eigenvalues --  -10.20455 -10.18850 -10.18849 -10.18797 -10.18781
 Alpha  occ. eigenvalues --  -10.18711  -0.84499  -0.74148  -0.73680  -0.60062
 Alpha  occ. eigenvalues --   -0.59323  -0.51653  -0.45844  -0.43787  -0.42050
 Alpha  occ. eigenvalues --   -0.40907  -0.35880  -0.34345  -0.33435  -0.24676
 Alpha  occ. eigenvalues --   -0.24639
 Alpha virt. eigenvalues --    0.00154   0.00222   0.07609   0.12882   0.14865
 Alpha virt. eigenvalues --    0.16092   0.17363   0.18356   0.19055   0.29662
 Alpha virt. eigenvalues --    0.30213   0.31670   0.31790   0.47595   0.52685
 Alpha virt. eigenvalues --    0.54144   0.54913   0.55946   0.59360   0.59888
 Alpha virt. eigenvalues --    0.59909   0.60140   0.60201   0.62395   0.62593
 Alpha virt. eigenvalues --    0.66573   0.66689   0.74326   0.77060   0.84866
 Alpha virt. eigenvalues --    0.85127   0.87046   0.87641   0.93448   0.93711
 Alpha virt. eigenvalues --    0.94622   0.95313   1.07726   1.08681   1.13853
 Alpha virt. eigenvalues --    1.14029   1.19449   1.26085   1.39784   1.40497
 Alpha virt. eigenvalues --    1.44179   1.48366   1.48531   1.51216   1.51730
 Alpha virt. eigenvalues --    1.74865   1.78495   1.81097   1.89712   1.95481
 Alpha virt. eigenvalues --    1.99017   2.05605   2.06125   2.14581   2.14593
 Alpha virt. eigenvalues --    2.14689   2.14927   2.30370   2.30373   2.31496
 Alpha virt. eigenvalues --    2.52743   2.54850   2.64654   2.67605   2.70418
 Alpha virt. eigenvalues --    2.71396   2.71837   2.75909   3.01080   3.38828
 Alpha virt. eigenvalues --    4.07418   4.11019   4.11847   4.32343   4.33131
 Alpha virt. eigenvalues --    4.65936
          Condensed to atoms (all electrons):
               1          2          3          4          5          6
     1  C    4.848998   0.546631  -0.038132  -0.038674  -0.029606   0.552126
     2  C    0.546631   4.865134   0.546631  -0.032840  -0.042123  -0.032840
     3  C   -0.038132   0.546631   4.849001   0.552126  -0.029606  -0.038675
     4  C   -0.038674  -0.032840   0.552126   4.847447   0.548684  -0.031979
     5  C   -0.029606  -0.042123  -0.029606   0.548684   4.852362   0.548684
     6  C    0.552126  -0.032840  -0.038675  -0.031979   0.548684   4.847449
     7  H    0.359477  -0.042011   0.004729   0.000619   0.004872  -0.044137
     8  H   -0.032999   0.337955  -0.032999   0.002930   0.000515   0.002930
     9  H    0.004729  -0.042011   0.359477  -0.044137   0.004872   0.000619
    10  H    0.000453   0.005063  -0.045113   0.361457  -0.044891   0.004985
    11  H    0.004876   0.000545   0.004876  -0.044719   0.360953  -0.044719
    12  H   -0.045113   0.005063   0.000453   0.004985  -0.044891   0.361457
               7          8          9         10         11         12
     1  C    0.359477  -0.032999   0.004729   0.000453   0.004876  -0.045113
     2  C   -0.042011   0.337955  -0.042011   0.005063   0.000545   0.005063
     3  C    0.004729  -0.032999   0.359477  -0.045113   0.004876   0.000453
     4  C    0.000619   0.002930  -0.044137   0.361457  -0.044719   0.004985
     5  C    0.004872   0.000515   0.004872  -0.044891   0.360953  -0.044891
     6  C   -0.044137   0.002930   0.000619   0.004985  -0.044719   0.361457
     7  H    0.596418  -0.004480  -0.000195   0.000015  -0.000186  -0.006155
     8  H   -0.004480   0.620655  -0.004480  -0.000132   0.000011  -0.000132
     9  H   -0.000195  -0.004480   0.596416  -0.006155  -0.000186   0.000015
    10  H    0.000015  -0.000132  -0.006155   0.600174  -0.005930  -0.000189
    11  H   -0.000186   0.000011  -0.000186  -0.005930   0.600882  -0.005930
    12  H   -0.006155  -0.000132   0.000015  -0.000189  -0.005930   0.600173
 Mulliken charges:
               1
     1  C   -0.132765
     2  C   -0.115197
     3  C   -0.132767
     4  C   -0.125898
     5  C   -0.129824
     6  C   -0.125900
     7  H    0.131034
     8  H    0.110224
     9  H    0.131035
    10  H    0.130264
    11  H    0.129528
    12  H    0.130264
 Sum of Mulliken charges =   0.00000
 Mulliken charges with hydrogens summed into heavy atoms:
               1
     1  C   -0.001730
     2  C   -0.004972
     3  C   -0.001732
     4  C    0.004366
     5  C   -0.000296
     6  C    0.004365
 Electronic spatial extent (au):  <R**2>=            463.6923
 Charge=              0.0000 electrons
 Dipole moment (field-independent basis, Debye):
    X=             -0.1374    Y=             -0.0793    Z=              0.0000  Tot=              0.1586
 Quadrupole moment (field-independent basis, Debye-Ang):
   XX=            -31.5452   YY=            -31.3581   ZZ=            -38.7421
   XY=             -0.1621   XZ=              0.0000   YZ=              0.0000
 Traceless Quadrupole moment (field-independent basis, Debye-Ang):
   XX=              2.3366   YY=              2.5237   ZZ=             -4.8604
   XY=             -0.1621   XZ=              0.0000   YZ=              0.0000
 Octapole moment (field-independent basis, Debye-Ang**2):
  XXX=              6.3487  YYY=              3.6756  ZZZ=              0.0000  XYY=              2.1162
  XXY=              1.2117  XXZ=              0.0000  XZZ=              2.6269  YZZ=              1.5167
  YYZ=              0.0000  XYZ=              0.0000
 Hexadecapole moment (field-independent basis, Debye-Ang**3):
 XXXX=           -276.6293 YYYY=           -271.4004 ZZZZ=            -40.2720 XXXY=             -2.0043
 XXXZ=              0.0000 YYYX=             -2.5244 YYYZ=              0.0000 ZZZX=              0.0000
 ZZZY=              0.0000 XXYY=            -91.1381 XXZZ=            -61.9627 YYZZ=            -60.7615
 XXYZ=              0.0000 YYXZ=              0.0000 ZZXY=             -1.0403
 N-N= 2.022603550972D+02 E-N=-9.416953991038D+02  KE= 2.297839520359D+02
 Calling FoFJK, ICntrl=      2127 FMM=F ISym2X=0 I1Cent= 0 IOpClX= 0 NMat=1 NMatS=1 NMatT=0.
 -------------------------------------------------------------------
 Center     Atomic                   Forces (Hartrees/Bohr)
 Number     Number              X              Y              Z
 -------------------------------------------------------------------
      1        6           0.003571270   -0.013218451    0.000000000
      2        6           0.052365860    0.030233771    0.000000000
      3        6          -0.009662353    0.009702104    0.000000000
      4        6          -0.000912087    0.017287963    0.000000000
      5        6           0.013949606    0.008053711    0.000000000
      6        6           0.014516043   -0.009434090    0.000000000
      7        1          -0.000205737    0.011840816    0.000000000
      8        1          -0.063351901   -0.036576294    0.000000000
      9        1           0.010152185   -0.006099022    0.000000000
     10        1           0.000291572   -0.012020851    0.000000000
     11        1          -0.010449316   -0.006033080    0.000000000
     12        1          -0.010265142    0.006263423    0.000000000
 -------------------------------------------------------------------
 Cartesian Forces:  Max     0.063351901 RMS     0.017445702

 GradGradGradGradGradGradGradGradGradGradGradGradGradGradGradGradGradGrad
 Berny optimization.
 FormGI is forming the generalized inverse of G from B-inverse, IUseBI=4.
 Internal  Forces:  Max     0.073152502 RMS     0.010767923
 Search for a local minimum.
 Step number   1 out of a maximum of   64
 All quantities printed in internal units (Hartrees-Bohrs-Radians)
 Mixed Optimization -- RFO/linear search
 Second derivative matrix not updated -- first step.
 ITU=  0
     Eigenvalues ---    0.02070   0.02070   0.02070   0.02070   0.02070
     Eigenvalues ---    0.02070   0.02070   0.02070   0.02070   0.16000
     Eigenvalues ---    0.16000   0.16000   0.16000   0.16000   0.16000
     Eigenvalues ---    0.20636   0.22000   0.22000   0.22000   0.37230
     Eigenvalues ---    0.37230   0.37230   0.37230   0.37230   0.41268
     Eigenvalues ---    0.41268   0.45389   0.45389   0.45389   0.45389
 RFO step:  Lambda=-2.53674644D-02 EMin= 2.07023650D-02
 Linear search not attempted -- first point.
 Maximum step size (   0.300) exceeded in Quadratic search.
    -- Step size scaled by   0.924
 Iteration  1 RMS(Cart)=  0.03009264 RMS(Int)=  0.01247074
 Iteration  2 RMS(Cart)=  0.01193825 RMS(Int)=  0.00000562
 Iteration  3 RMS(Cart)=  0.00000000 RMS(Int)=  0.00000562
 Variable       Old X    -DE/DX   Delta X   Delta X   Delta X     New X
                                 (Linear)    (Quad)   (Total)
    R1        2.64826  -0.00677   0.00000  -0.01330  -0.01329   2.63497
    R2        2.64826  -0.00412   0.00000  -0.00794  -0.00794   2.64033
    R3        2.02201   0.01184   0.00000   0.02751   0.02751   2.04951
    R4        2.64826  -0.00677   0.00000  -0.01330  -0.01329   2.63497
    R5        2.38502  -0.07315   0.00000  -0.29164  -0.29164   2.09339
    R6        2.64826  -0.00412   0.00000  -0.00794  -0.00794   2.64033
    R7        2.02201   0.01184   0.00000   0.02751   0.02751   2.04952
    R8        2.64826  -0.00412   0.00000  -0.00769  -0.00770   2.64056
    R9        2.02201   0.01202   0.00000   0.02793   0.02793   2.04993
   R10        2.64826  -0.00412   0.00000  -0.00769  -0.00770   2.64056
   R11        2.02201   0.01207   0.00000   0.02803   0.02803   2.05004
   R12        2.02201   0.01202   0.00000   0.02793   0.02793   2.04993
    A1        2.09440  -0.00204   0.00000  -0.00816  -0.00815   2.08624
    A2        2.09440   0.00123   0.00000   0.00512   0.00511   2.09951
    A3        2.09440   0.00081   0.00000   0.00305   0.00304   2.09744
    A4        2.09440   0.00385   0.00000   0.01352   0.01354   2.10793
    A5        2.09440  -0.00192   0.00000  -0.00676  -0.00677   2.08763
    A6        2.09440  -0.00192   0.00000  -0.00676  -0.00677   2.08763
    A7        2.09440  -0.00204   0.00000  -0.00816  -0.00816   2.08624
    A8        2.09440   0.00123   0.00000   0.00512   0.00511   2.09951
    A9        2.09440   0.00081   0.00000   0.00305   0.00304   2.09744
   A10        2.09440   0.00017   0.00000   0.00112   0.00111   2.09551
   A11        2.09440  -0.00038   0.00000  -0.00203  -0.00202   2.09237
   A12        2.09440   0.00021   0.00000   0.00091   0.00091   2.09531
   A13        2.09440  -0.00010   0.00000   0.00057   0.00055   2.09495
   A14        2.09440   0.00005   0.00000  -0.00029  -0.00028   2.09412
   A15        2.09440   0.00005   0.00000  -0.00028  -0.00028   2.09412
   A16        2.09440   0.00017   0.00000   0.00112   0.00111   2.09550
   A17        2.09440  -0.00038   0.00000  -0.00203  -0.00202   2.09237
   A18        2.09440   0.00021   0.00000   0.00091   0.00092   2.09531
    D1        0.00000   0.00000   0.00000   0.00000   0.00000   0.00000
    D2        3.14159   0.00000   0.00000   0.00000   0.00000   3.14159
    D3        3.14159   0.00000   0.00000   0.00000   0.00000   3.14159
    D4        0.00000   0.00000   0.00000   0.00000   0.00000   0.00000
    D5        0.00000   0.00000   0.00000   0.00000   0.00000   0.00000
    D6        3.14159   0.00000   0.00000   0.00000   0.00000   3.14159
    D7        3.14159   0.00000   0.00000   0.00000   0.00000   3.14159
    D8        0.00000   0.00000   0.00000   0.00000   0.00000   0.00000
    D9        0.00000   0.00000   0.00000   0.00000   0.00000   0.00000
   D10        3.14159   0.00000   0.00000   0.00000   0.00000   3.14159
   D11        3.14159   0.00000   0.00000   0.00000   0.00000   3.14159
   D12        0.00000   0.00000   0.00000   0.00000   0.00000   0.00000
   D13        0.00000   0.00000   0.00000   0.00000   0.00000   0.00000
   D14        3.14159   0.00000   0.00000   0.00000   0.00000   3.14159
   D15        3.14159   0.00000   0.00000   0.00000   0.00000   3.14159
   D16        0.00000   0.00000   0.00000   0.00000   0.00000   0.00000
   D17        0.00000   0.00000   0.00000   0.00000   0.00000   0.00000
   D18        3.14159   0.00000   0.00000   0.00000   0.00000   3.14159
   D19        3.14159   0.00000   0.00000   0.00000   0.00000   3.14159
   D20        0.00000   0.00000   0.00000   0.00000   0.00000   0.00000
   D21        0.00000   0.00000   0.00000   0.00000   0.00000   0.00000
   D22        3.14159   0.00000   0.00000   0.00000   0.00000   3.14159
   D23        3.14159   0.00000   0.00000   0.00000   0.00000   3.14159
   D24        0.00000   0.00000   0.00000   0.00000   0.00000   0.00000
         Item               Value     Threshold  Converged?
 Maximum Force            0.073153     0.000450     NO 
 RMS     Force            0.010768     0.000300     NO 
 Maximum Displacement     0.250100     0.001800     NO 
 RMS     Displacement     0.041749     0.001200     NO 
 Predicted change in Energy=-1.375168D-02
 GradGradGradGradGradGradGradGradGradGradGradGradGradGradGradGradGradGrad

                          Input orientation:                          
 ---------------------------------------------------------------------
 Center     Atomic      Atomic             Coordinates (Angstroms)
 Number     Number       Type             X           Y           Z
 ---------------------------------------------------------------------
      1          6           0       -0.071041    1.358768    0.000000
      2          6           0        1.131770    0.653428    0.000000
      3          6           0        1.141208   -0.740907    0.000000
      4          6           0       -0.069771   -1.437829    0.000000
      5          6           0       -1.279695   -0.738832    0.000000
      6          6           0       -1.280082    0.658491    0.000000
      7          1           0       -0.069246    2.443323    0.000000
      8          1           0        2.091129    1.207314    0.000000
      9          1           0        2.081357   -1.281631    0.000000
     10          1           0       -0.069079   -2.522606    0.000000
     11          1           0       -2.219188   -1.281250    0.000000
     12          1           0       -2.219181    1.201480    0.000000
 ---------------------------------------------------------------------
                    Distance matrix (angstroms):
                    1          2          3          4          5
     1  C    0.000000
     2  C    1.394367   0.000000
     3  C    2.424497   1.394367   0.000000
     4  C    2.796598   2.411857   1.397200   0.000000
     5  C    2.420904   2.784521   2.420904   1.397324   0.000000
     6  C    1.397201   2.411858   2.796598   2.420622   1.397324
     7  H    1.084556   2.155497   3.406541   3.881152   3.404600
     8  H    2.167468   1.107773   2.167468   3.415592   3.892293
     9  H    3.406542   2.155498   1.084557   2.156792   3.404601
    10  H    3.881375   3.395472   2.153891   1.084778   2.155792
    11  H    3.403562   3.869353   3.403561   2.155113   1.084833
    12  H    2.153891   3.395473   3.881377   3.403809   2.155794
                    6          7          8          9         10
     6  C    0.000000
     7  H    2.156791   0.000000
     8  H    3.415593   2.488964   0.000000
     9  H    3.881154   4.301207   2.488965   0.000000
    10  H    3.403808   4.965929   4.310314   2.482820   0.000000
    11  H    2.155114   4.300546   4.977126   4.300545   2.482727
    12  H    1.084778   2.482820   4.310315   4.965932   4.300204
                   11         12
    11  H    0.000000
    12  H    2.482730   0.000000
 Symmetry turned off by external request.
 Stoichiometry    C6H6
 Framework group  CS[SG(C6H6)]
 Deg. of freedom    21
 Full point group                 CS      NOp   2
 Rotational constants (GHZ):           5.7012678           5.6741836           2.8438467
 Standard basis: 6-31G(d) (6D, 7F)
   102 basis functions,   192 primitive gaussians,   102 cartesian basis functions
    21 alpha electrons       21 beta electrons
       nuclear repulsion energy       203.1851320951 Hartrees.
 NAtoms=   12 NActive=   12 NUniq=   12 SFac= 1.00D+00 NAtFMM=   60 NAOKFM=F Big=F
 Integral buffers will be    262144 words long.
 Raffenetti 2 integral format.
 Two-electron integral symmetry is turned off.
 One-electron integrals computed using PRISM.
 NBasis=   102 RedAO= T EigKep=  5.21D-04  NBF=   102
 NBsUse=   102 1.00D-06 EigRej= -1.00D+00 NBFU=   102
 Initial guess from the checkpoint file:  "D:\gfile\pywfn\C6H6_opt.chk"
 B after Tr=     0.016081    0.009284    0.000000
         Rot=    1.000000    0.000000    0.000000    0.000000 Ang=   0.00 deg.
 ExpMin= 1.61D-01 ExpMax= 3.05D+03 ExpMxC= 4.57D+02 IAcc=2 IRadAn=         4 AccDes= 0.00D+00
 Harris functional with IExCor=  402 and IRadAn=       4 diagonalized for initial guess.
 HarFok:  IExCor=  402 AccDes= 0.00D+00 IRadAn=         4 IDoV= 1 UseB2=F ITyADJ=14
 ICtDFT=  3500011 ScaDFX=  1.000000  1.000000  1.000000  1.000000
 FoFCou: FMM=F IPFlag=           0 FMFlag=      100000 FMFlg1=           0
         NFxFlg=           0 DoJE=T BraDBF=F KetDBF=T FulRan=T
         wScrn=  0.000000 ICntrl=       500 IOpCl=  0 I1Cent=   200000004 NGrid=           0
         NMat0=    1 NMatS0=      1 NMatT0=    0 NMatD0=    1 NMtDS0=    0 NMtDT0=    0
 Symmetry not used in FoFCou.
 Keep R1 ints in memory in canonical form, NReq=14720685.
 Requested convergence on RMS density matrix=1.00D-08 within 128 cycles.
 Requested convergence on MAX density matrix=1.00D-06.
 Requested convergence on             energy=1.00D-06.
 No special actions if energy rises.
 Integral accuracy reduced to 1.0D-05 until final iterations.
 Initial convergence to 1.0D-05 achieved.  Increase integral accuracy.
 SCF Done:  E(RB3LYP) =  -232.248327036     A.U. after   11 cycles
            NFock= 11  Conv=0.95D-08     -V/T= 2.0101
 Calling FoFJK, ICntrl=      2127 FMM=F ISym2X=0 I1Cent= 0 IOpClX= 0 NMat=1 NMatS=1 NMatT=0.
 -------------------------------------------------------------------
 Center     Atomic                   Forces (Hartrees/Bohr)
 Number     Number              X              Y              Z
 -------------------------------------------------------------------
      1        6          -0.002041180   -0.003256328    0.000000000
      2        6           0.015651759    0.009036675    0.000000000
      3        6          -0.003839969   -0.000139608    0.000000000
      4        6           0.000085166    0.001180392    0.000000000
      5        6           0.001811096    0.001045492    0.000000000
      6        6           0.001064744   -0.000516055    0.000000000
      7        1           0.000157961    0.001432279    0.000000000
      8        1          -0.011132584   -0.006427291    0.000000000
      9        1           0.001318941   -0.000579186    0.000000000
     10        1          -0.000289823   -0.001597241    0.000000000
     11        1          -0.001258366   -0.000726564    0.000000000
     12        1          -0.001527744    0.000547435    0.000000000
 -------------------------------------------------------------------
 Cartesian Forces:  Max     0.015651759 RMS     0.003873427

 GradGradGradGradGradGradGradGradGradGradGradGradGradGradGradGradGradGrad
 Berny optimization.
 Using GEDIIS/GDIIS optimizer.
 FormGI is forming the generalized inverse of G from B-inverse, IUseBI=4.
 Internal  Forces:  Max     0.012854746 RMS     0.001904764
 Search for a local minimum.
 Step number   2 out of a maximum of   64
 All quantities printed in internal units (Hartrees-Bohrs-Radians)
 Mixed Optimization -- RFO/linear search
 Update second derivatives using D2CorX and points    1    2
 DE= -1.50D-02 DEPred=-1.38D-02 R= 1.09D+00
 TightC=F SS=  1.41D+00  RLast= 3.00D-01 DXNew= 5.0454D-01 9.0000D-01
 Trust test= 1.09D+00 RLast= 3.00D-01 DXMaxT set to 5.05D-01
 ITU=  1  0
 Use linear search instead of GDIIS.
     Eigenvalues ---    0.02070   0.02070   0.02070   0.02070   0.02070
     Eigenvalues ---    0.02070   0.02070   0.02070   0.02070   0.15994
     Eigenvalues ---    0.16000   0.16000   0.16000   0.16000   0.16000
     Eigenvalues ---    0.19713   0.22000   0.22000   0.23049   0.37218
     Eigenvalues ---    0.37230   0.37230   0.37230   0.37258   0.41269
     Eigenvalues ---    0.41366   0.45388   0.45389   0.45389   0.45712
 RFO step:  Lambda=-1.69514809D-04 EMin= 2.07023650D-02
 Quartic linear search produced a step of  0.12893.
 Iteration  1 RMS(Cart)=  0.00442175 RMS(Int)=  0.00001179
 Iteration  2 RMS(Cart)=  0.00001555 RMS(Int)=  0.00000477
 Iteration  3 RMS(Cart)=  0.00000000 RMS(Int)=  0.00000477
 Variable       Old X    -DE/DX   Delta X   Delta X   Delta X     New X
                                 (Linear)    (Quad)   (Total)
    R1        2.63497   0.00142  -0.00171   0.00609   0.00439   2.63936
    R2        2.64033   0.00007  -0.00102   0.00153   0.00050   2.64083
    R3        2.04951   0.00143   0.00355  -0.00063   0.00291   2.05243
    R4        2.63497   0.00142  -0.00171   0.00609   0.00439   2.63936
    R5        2.09339  -0.01285  -0.03760  -0.00609  -0.04369   2.04970
    R6        2.64033   0.00007  -0.00102   0.00153   0.00050   2.64083
    R7        2.04952   0.00143   0.00355  -0.00063   0.00291   2.05243
    R8        2.64056  -0.00062  -0.00099  -0.00049  -0.00149   2.63907
    R9        2.04993   0.00160   0.00360  -0.00021   0.00339   2.05332
   R10        2.64056  -0.00062  -0.00099  -0.00049  -0.00149   2.63907
   R11        2.05004   0.00145   0.00361  -0.00067   0.00295   2.05299
   R12        2.04993   0.00160   0.00360  -0.00021   0.00339   2.05332
    A1        2.08624   0.00124  -0.00105   0.00866   0.00762   2.09386
    A2        2.09951  -0.00078   0.00066  -0.00571  -0.00505   2.09446
    A3        2.09744  -0.00046   0.00039  -0.00295  -0.00256   2.09487
    A4        2.10793  -0.00251   0.00175  -0.01465  -0.01289   2.09504
    A5        2.08763   0.00125  -0.00087   0.00732   0.00644   2.09407
    A6        2.08763   0.00125  -0.00087   0.00733   0.00644   2.09407
    A7        2.08624   0.00124  -0.00105   0.00866   0.00762   2.09386
    A8        2.09951  -0.00078   0.00066  -0.00571  -0.00505   2.09446
    A9        2.09744  -0.00046   0.00039  -0.00295  -0.00256   2.09487
   A10        2.09551  -0.00006   0.00014  -0.00111  -0.00098   2.09453
   A11        2.09237   0.00033  -0.00026   0.00302   0.00276   2.09513
   A12        2.09531  -0.00027   0.00012  -0.00190  -0.00178   2.09353
   A13        2.09495   0.00015   0.00007  -0.00044  -0.00039   2.09456
   A14        2.09412  -0.00008  -0.00004   0.00022   0.00019   2.09431
   A15        2.09412  -0.00008  -0.00004   0.00022   0.00019   2.09431
   A16        2.09550  -0.00006   0.00014  -0.00111  -0.00098   2.09453
   A17        2.09237   0.00033  -0.00026   0.00302   0.00276   2.09513
   A18        2.09531  -0.00027   0.00012  -0.00190  -0.00178   2.09353
    D1        0.00000   0.00000   0.00000   0.00000   0.00000   0.00000
    D2        3.14159   0.00000   0.00000   0.00000   0.00000   3.14159
    D3        3.14159   0.00000   0.00000   0.00000   0.00000   3.14159
    D4        0.00000   0.00000   0.00000   0.00000   0.00000   0.00000
    D5        0.00000   0.00000   0.00000   0.00000   0.00000   0.00000
    D6        3.14159   0.00000   0.00000   0.00000   0.00000   3.14159
    D7        3.14159   0.00000   0.00000   0.00000   0.00000   3.14159
    D8        0.00000   0.00000   0.00000   0.00000   0.00000   0.00000
    D9        0.00000   0.00000   0.00000   0.00000   0.00000   0.00000
   D10        3.14159   0.00000   0.00000   0.00000   0.00000   3.14159
   D11        3.14159   0.00000   0.00000   0.00000   0.00000   3.14159
   D12        0.00000   0.00000   0.00000   0.00000   0.00000   0.00000
   D13        0.00000   0.00000   0.00000   0.00000   0.00000   0.00000
   D14        3.14159   0.00000   0.00000   0.00000   0.00000   3.14159
   D15        3.14159   0.00000   0.00000   0.00000   0.00000   3.14159
   D16        0.00000   0.00000   0.00000   0.00000   0.00000   0.00000
   D17        0.00000   0.00000   0.00000   0.00000   0.00000   0.00000
   D18        3.14159   0.00000   0.00000   0.00000   0.00000   3.14159
   D19        3.14159   0.00000   0.00000   0.00000   0.00000   3.14159
   D20        0.00000   0.00000   0.00000   0.00000   0.00000   0.00000
   D21        0.00000   0.00000   0.00000   0.00000   0.00000   0.00000
   D22        3.14159   0.00000   0.00000   0.00000   0.00000   3.14159
   D23        3.14159   0.00000   0.00000   0.00000   0.00000   3.14159
   D24        0.00000   0.00000   0.00000   0.00000   0.00000   0.00000
         Item               Value     Threshold  Converged?
 Maximum Force            0.012855     0.000450     NO 
 RMS     Force            0.001905     0.000300     NO 
 Maximum Displacement     0.021278     0.001800     NO 
 RMS     Displacement     0.004424     0.001200     NO 
 Predicted change in Energy=-4.322745D-04
 GradGradGradGradGradGradGradGradGradGradGradGradGradGradGradGradGradGrad

                          Input orientation:                          
 ---------------------------------------------------------------------
 Center     Atomic      Atomic             Coordinates (Angstroms)
 Number     Number       Type             X           Y           Z
 ---------------------------------------------------------------------
      1          6           0       -0.068810    1.357222    0.000000
      2          6           0        1.140531    0.658486    0.000000
      3          6           0        1.140984   -0.738202    0.000000
      4          6           0       -0.069408   -1.436677    0.000000
      5          6           0       -1.278786   -0.738308    0.000000
      6          6           0       -1.278903    0.658230    0.000000
      7          1           0       -0.068524    2.443320    0.000000
      8          1           0        2.079870    1.200814    0.000000
      9          1           0        2.081715   -1.281004    0.000000
     10          1           0       -0.070442   -2.523248    0.000000
     11          1           0       -2.219630   -1.281505    0.000000
     12          1           0       -2.220417    1.200621    0.000000
 ---------------------------------------------------------------------
                    Distance matrix (angstroms):
                    1          2          3          4          5
     1  C    0.000000
     2  C    1.396688   0.000000
     3  C    2.419587   1.396688   0.000000
     4  C    2.793899   2.419434   1.397468   0.000000
     5  C    2.419771   2.793588   2.419771   1.396537   0.000000
     6  C    1.397467   2.419434   2.793900   2.418990   1.396538
     7  H    1.086098   2.155793   3.403673   3.879997   3.404040
     8  H    2.154364   1.084655   2.154365   3.402316   3.878242
     9  H    3.403674   2.155795   1.086098   2.156748   3.404040
    10  H    3.880470   3.404393   2.157300   1.086571   2.155483
    11  H    3.404249   3.879981   3.404248   2.155814   1.086393
    12  H    2.157299   3.404392   3.880471   3.403260   2.155484
                    6          7          8          9         10
     6  C    0.000000
     7  H    2.156748   0.000000
     8  H    3.402315   2.481817   0.000000
     9  H    3.879997   4.300479   2.481819   0.000000
    10  H    3.403260   4.966568   4.300288   2.484944   0.000000
    11  H    2.155815   4.301346   4.964635   4.301345   2.482123
    12  H    1.086571   2.484944   4.300287   4.966569   4.299953
                   11         12
    11  H    0.000000
    12  H    2.482126   0.000000
 Symmetry turned off by external request.
 Stoichiometry    C6H6
 Framework group  CS[SG(C6H6)]
 Deg. of freedom    21
 Full point group                 CS      NOp   2
 Rotational constants (GHZ):           5.6865910           5.6845930           2.8427959
 Standard basis: 6-31G(d) (6D, 7F)
   102 basis functions,   192 primitive gaussians,   102 cartesian basis functions
    21 alpha electrons       21 beta electrons
       nuclear repulsion energy       203.1786554547 Hartrees.
 NAtoms=   12 NActive=   12 NUniq=   12 SFac= 1.00D+00 NAtFMM=   60 NAOKFM=F Big=F
 Integral buffers will be    262144 words long.
 Raffenetti 2 integral format.
 Two-electron integral symmetry is turned off.
 One-electron integrals computed using PRISM.
 NBasis=   102 RedAO= T EigKep=  5.22D-04  NBF=   102
 NBsUse=   102 1.00D-06 EigRej= -1.00D+00 NBFU=   102
 Initial guess from the checkpoint file:  "D:\gfile\pywfn\C6H6_opt.chk"
 B after Tr=     0.002974    0.001717    0.000000
         Rot=    1.000000    0.000000    0.000000    0.000000 Ang=   0.00 deg.
 ExpMin= 1.61D-01 ExpMax= 3.05D+03 ExpMxC= 4.57D+02 IAcc=2 IRadAn=         4 AccDes= 0.00D+00
 Harris functional with IExCor=  402 and IRadAn=       4 diagonalized for initial guess.
 HarFok:  IExCor=  402 AccDes= 0.00D+00 IRadAn=         4 IDoV= 1 UseB2=F ITyADJ=14
 ICtDFT=  3500011 ScaDFX=  1.000000  1.000000  1.000000  1.000000
 FoFCou: FMM=F IPFlag=           0 FMFlag=      100000 FMFlg1=           0
         NFxFlg=           0 DoJE=T BraDBF=F KetDBF=T FulRan=T
         wScrn=  0.000000 ICntrl=       500 IOpCl=  0 I1Cent=   200000004 NGrid=           0
         NMat0=    1 NMatS0=      1 NMatT0=    0 NMatD0=    1 NMtDS0=    0 NMtDT0=    0
 Symmetry not used in FoFCou.
 Keep R1 ints in memory in canonical form, NReq=14720685.
 Requested convergence on RMS density matrix=1.00D-08 within 128 cycles.
 Requested convergence on MAX density matrix=1.00D-06.
 Requested convergence on             energy=1.00D-06.
 No special actions if energy rises.
 Integral accuracy reduced to 1.0D-05 until final iterations.
 Initial convergence to 1.0D-05 achieved.  Increase integral accuracy.
 SCF Done:  E(RB3LYP) =  -232.248642938     A.U. after   10 cycles
            NFock= 10  Conv=0.37D-08     -V/T= 2.0101
 Calling FoFJK, ICntrl=      2127 FMM=F ISym2X=0 I1Cent= 0 IOpClX= 0 NMat=1 NMatS=1 NMatT=0.
 -------------------------------------------------------------------
 Center     Atomic                   Forces (Hartrees/Bohr)
 Number     Number              X              Y              Z
 -------------------------------------------------------------------
      1        6          -0.000598691   -0.001130594    0.000000000
      2        6          -0.001320514   -0.000762646    0.000000000
      3        6          -0.001278577    0.000046731    0.000000000
      4        6           0.000584465    0.000533386    0.000000000
      5        6           0.000434742    0.000251099    0.000000000
      6        6           0.000753817    0.000239365    0.000000000
      7        1          -0.000037305    0.000603848    0.000000000
      8        1           0.001410663    0.000814531    0.000000000
      9        1           0.000504327   -0.000334219    0.000000000
     10        1           0.000116756   -0.000302020    0.000000000
     11        1          -0.000366459   -0.000211595    0.000000000
     12        1          -0.000203224    0.000252113    0.000000000
 -------------------------------------------------------------------
 Cartesian Forces:  Max     0.001410663 RMS     0.000549671

 GradGradGradGradGradGradGradGradGradGradGradGradGradGradGradGradGradGrad
 Berny optimization.
 Using GEDIIS/GDIIS optimizer.
 FormGI is forming the generalized inverse of G from B-inverse, IUseBI=4.
 Internal  Forces:  Max     0.001628935 RMS     0.000305162
 Search for a local minimum.
 Step number   3 out of a maximum of   64
 All quantities printed in internal units (Hartrees-Bohrs-Radians)
 Mixed Optimization -- En-DIIS/RFO-DIIS
 Update second derivatives using D2CorX and points    1    2    3
 DE= -3.16D-04 DEPred=-4.32D-04 R= 7.31D-01
 TightC=F SS=  1.41D+00  RLast= 4.95D-02 DXNew= 8.4853D-01 1.4861D-01
 Trust test= 7.31D-01 RLast= 4.95D-02 DXMaxT set to 5.05D-01
 ITU=  1  1  0
 Use linear search instead of GDIIS.
     Eigenvalues ---    0.02070   0.02070   0.02070   0.02070   0.02070
     Eigenvalues ---    0.02070   0.02070   0.02070   0.02070   0.15998
     Eigenvalues ---    0.16000   0.16000   0.16000   0.16000   0.16010
     Eigenvalues ---    0.20707   0.22000   0.22001   0.33751   0.36658
     Eigenvalues ---    0.37230   0.37230   0.37231   0.37367   0.41158
     Eigenvalues ---    0.41247   0.45389   0.45389   0.45591   0.45817
 RFO step:  Lambda=-8.27560316D-06 EMin= 2.07023650D-02
 Quartic linear search produced a step of -0.08035.
 Iteration  1 RMS(Cart)=  0.00076373 RMS(Int)=  0.00000034
 Iteration  2 RMS(Cart)=  0.00000020 RMS(Int)=  0.00000030
 Variable       Old X    -DE/DX   Delta X   Delta X   Delta X     New X
                                 (Linear)    (Quad)   (Total)
    R1        2.63936  -0.00004  -0.00035   0.00023  -0.00012   2.63924
    R2        2.64083  -0.00076  -0.00004  -0.00153  -0.00157   2.63926
    R3        2.05243   0.00060  -0.00023   0.00188   0.00165   2.05408
    R4        2.63936  -0.00004  -0.00035   0.00023  -0.00012   2.63924
    R5        2.04970   0.00163   0.00351   0.00095   0.00446   2.05416
    R6        2.64083  -0.00076  -0.00004  -0.00153  -0.00157   2.63926
    R7        2.05243   0.00060  -0.00023   0.00188   0.00165   2.05408
    R8        2.63907   0.00006   0.00012  -0.00003   0.00009   2.63916
    R9        2.05332   0.00030  -0.00027   0.00118   0.00091   2.05423
   R10        2.63907   0.00006   0.00012  -0.00003   0.00009   2.63916
   R11        2.05299   0.00042  -0.00024   0.00144   0.00121   2.05419
   R12        2.05332   0.00030  -0.00027   0.00118   0.00091   2.05423
    A1        2.09386   0.00010  -0.00061   0.00102   0.00041   2.09427
    A2        2.09446  -0.00001   0.00041  -0.00040   0.00001   2.09446
    A3        2.09487  -0.00009   0.00021  -0.00062  -0.00042   2.09445
    A4        2.09504  -0.00008   0.00104  -0.00147  -0.00043   2.09461
    A5        2.09407   0.00004  -0.00052   0.00073   0.00022   2.09429
    A6        2.09407   0.00004  -0.00052   0.00073   0.00022   2.09429
    A7        2.09386   0.00010  -0.00061   0.00102   0.00041   2.09427
    A8        2.09446  -0.00001   0.00041  -0.00040   0.00001   2.09447
    A9        2.09487  -0.00009   0.00021  -0.00062  -0.00042   2.09445
   A10        2.09453  -0.00006   0.00008  -0.00030  -0.00022   2.09430
   A11        2.09513  -0.00009  -0.00022  -0.00034  -0.00056   2.09457
   A12        2.09353   0.00015   0.00014   0.00064   0.00078   2.09431
   A13        2.09456   0.00000   0.00003   0.00003   0.00006   2.09462
   A14        2.09431   0.00000  -0.00002  -0.00001  -0.00003   2.09428
   A15        2.09431   0.00000  -0.00002  -0.00001  -0.00003   2.09428
   A16        2.09453  -0.00006   0.00008  -0.00030  -0.00022   2.09430
   A17        2.09513  -0.00009  -0.00022  -0.00034  -0.00056   2.09457
   A18        2.09353   0.00015   0.00014   0.00064   0.00078   2.09431
    D1        0.00000   0.00000   0.00000   0.00000   0.00000   0.00000
    D2        3.14159   0.00000   0.00000   0.00000   0.00000   3.14159
    D3        3.14159   0.00000   0.00000   0.00000   0.00000   3.14159
    D4        0.00000   0.00000   0.00000   0.00000   0.00000   0.00000
    D5        0.00000   0.00000   0.00000   0.00000   0.00000   0.00000
    D6        3.14159   0.00000   0.00000   0.00000   0.00000   3.14159
    D7        3.14159   0.00000   0.00000   0.00000   0.00000   3.14159
    D8        0.00000   0.00000   0.00000   0.00000   0.00000   0.00000
    D9        0.00000   0.00000   0.00000   0.00000   0.00000   0.00000
   D10        3.14159   0.00000   0.00000   0.00000   0.00000   3.14159
   D11        3.14159   0.00000   0.00000   0.00000   0.00000   3.14159
   D12        0.00000   0.00000   0.00000   0.00000   0.00000   0.00000
   D13        0.00000   0.00000   0.00000   0.00000   0.00000   0.00000
   D14        3.14159   0.00000   0.00000   0.00000   0.00000   3.14159
   D15        3.14159   0.00000   0.00000   0.00000   0.00000   3.14159
   D16        0.00000   0.00000   0.00000   0.00000   0.00000   0.00000
   D17        0.00000   0.00000   0.00000   0.00000   0.00000   0.00000
   D18        3.14159   0.00000   0.00000   0.00000   0.00000   3.14159
   D19        3.14159   0.00000   0.00000   0.00000   0.00000   3.14159
   D20        0.00000   0.00000   0.00000   0.00000   0.00000   0.00000
   D21        0.00000   0.00000   0.00000   0.00000   0.00000   0.00000
   D22        3.14159   0.00000   0.00000   0.00000   0.00000   3.14159
   D23        3.14159   0.00000   0.00000   0.00000   0.00000   3.14159
   D24        0.00000   0.00000   0.00000   0.00000   0.00000   0.00000
         Item               Value     Threshold  Converged?
 Maximum Force            0.001629     0.000450     NO 
 RMS     Force            0.000305     0.000300     NO 
 Maximum Displacement     0.003074     0.001800     NO 
 RMS     Displacement     0.000764     0.001200     YES
 Predicted change in Energy=-6.765769D-06
 GradGradGradGradGradGradGradGradGradGradGradGradGradGradGradGradGradGrad

                          Input orientation:                          
 ---------------------------------------------------------------------
 Center     Atomic      Atomic             Coordinates (Angstroms)
 Number     Number       Type             X           Y           Z
 ---------------------------------------------------------------------
      1          6           0       -0.069326    1.356686    0.000000
      2          6           0        1.140113    0.658244    0.000000
      3          6           0        1.140262   -0.738381    0.000000
      4          6           0       -0.069276   -1.436673    0.000000
      5          6           0       -1.278675   -0.738243    0.000000
      6          6           0       -1.278834    0.658342    0.000000
      7          1           0       -0.069284    2.443656    0.000000
      8          1           0        2.081496    1.201754    0.000000
      9          1           0        2.081626   -1.281831    0.000000
     10          1           0       -0.069493   -2.523726    0.000000
     11          1           0       -2.220070   -1.281760    0.000000
     12          1           0       -2.220358    1.201682    0.000000
 ---------------------------------------------------------------------
                    Distance matrix (angstroms):
                    1          2          3          4          5
     1  C    0.000000
     2  C    1.396625   0.000000
     3  C    2.419176   1.396626   0.000000
     4  C    2.793359   2.418946   1.396637   0.000000
     5  C    2.418936   2.792975   2.418937   1.396585   0.000000
     6  C    1.396637   2.418947   2.793361   2.419116   1.396586
     7  H    1.086970   2.156464   3.404169   3.880329   3.403984
     8  H    2.156395   1.087017   2.156396   3.403986   3.879992
     9  H    3.404169   2.156465   1.086970   2.156468   3.403984
    10  H    3.880412   3.404127   2.156610   1.087053   2.156402
    11  H    3.403982   3.880006   3.403982   2.156366   1.087031
    12  H    2.156609   3.404128   3.880414   3.404126   2.156403
                    6          7          8          9         10
     6  C    0.000000
     7  H    2.156468   0.000000
     8  H    3.403985   2.483582   0.000000
     9  H    3.880331   4.301822   2.483585   0.000000
    10  H    3.404125   4.967382   4.301855   2.483871   0.000000
    11  H    2.156368   4.301697   4.967022   4.301696   2.483438
    12  H    1.087053   2.483871   4.301854   4.967384   4.301730
                   11         12
    11  H    0.000000
    12  H    2.483441   0.000000
 Symmetry turned off by external request.
 Stoichiometry    C6H6
 Framework group  CS[SG(C6H6)]
 Deg. of freedom    21
 Full point group                 CS      NOp   2
 Rotational constants (GHZ):           5.6872690           5.6862564           2.8433813
 Standard basis: 6-31G(d) (6D, 7F)
   102 basis functions,   192 primitive gaussians,   102 cartesian basis functions
    21 alpha electrons       21 beta electrons
       nuclear repulsion energy       203.1866351925 Hartrees.
 NAtoms=   12 NActive=   12 NUniq=   12 SFac= 1.00D+00 NAtFMM=   60 NAOKFM=F Big=F
 Integral buffers will be    262144 words long.
 Raffenetti 2 integral format.
 Two-electron integral symmetry is turned off.
 One-electron integrals computed using PRISM.
 NBasis=   102 RedAO= T EigKep=  5.21D-04  NBF=   102
 NBsUse=   102 1.00D-06 EigRej= -1.00D+00 NBFU=   102
 Initial guess from the checkpoint file:  "D:\gfile\pywfn\C6H6_opt.chk"
 B after Tr=    -0.000303   -0.000175    0.000000
         Rot=    1.000000    0.000000    0.000000    0.000000 Ang=   0.00 deg.
 Keep R1 ints in memory in canonical form, NReq=14720685.
 Requested convergence on RMS density matrix=1.00D-08 within 128 cycles.
 Requested convergence on MAX density matrix=1.00D-06.
 Requested convergence on             energy=1.00D-06.
 No special actions if energy rises.
 SCF Done:  E(RB3LYP) =  -232.248649641     A.U. after    7 cycles
            NFock=  7  Conv=0.58D-08     -V/T= 2.0101
 Calling FoFJK, ICntrl=      2127 FMM=F ISym2X=0 I1Cent= 0 IOpClX= 0 NMat=1 NMatS=1 NMatT=0.
 -------------------------------------------------------------------
 Center     Atomic                   Forces (Hartrees/Bohr)
 Number     Number              X              Y              Z
 -------------------------------------------------------------------
      1        6          -0.000022168   -0.000059901    0.000000000
      2        6           0.000046331    0.000026740    0.000000000
      3        6          -0.000062988    0.000010651    0.000000000
      4        6           0.000028318   -0.000012795    0.000000000
      5        6          -0.000075693   -0.000043695    0.000000000
      6        6           0.000003040    0.000030964    0.000000000
      7        1           0.000004903    0.000026123    0.000000000
      8        1           0.000001259    0.000000766    0.000000000
      9        1           0.000025052   -0.000008787    0.000000000
     10        1           0.000013588    0.000029013    0.000000000
     11        1           0.000006419    0.000003684    0.000000000
     12        1           0.000031939   -0.000002763    0.000000000
 -------------------------------------------------------------------
 Cartesian Forces:  Max     0.000075693 RMS     0.000025883

 GradGradGradGradGradGradGradGradGradGradGradGradGradGradGradGradGradGrad
 Berny optimization.
 Using GEDIIS/GDIIS optimizer.
 FormGI is forming the generalized inverse of G from B-inverse, IUseBI=4.
 Internal  Forces:  Max     0.000046768 RMS     0.000015623
 Search for a local minimum.
 Step number   4 out of a maximum of   64
 All quantities printed in internal units (Hartrees-Bohrs-Radians)
 Mixed Optimization -- En-DIIS/RFO-DIIS
 Swapping is turned off.
 Update second derivatives using D2CorX and points    1    2    3    4
 DE= -6.70D-06 DEPred=-6.77D-06 R= 9.91D-01
 TightC=F SS=  1.41D+00  RLast= 6.03D-03 DXNew= 8.4853D-01 1.8091D-02
 Trust test= 9.91D-01 RLast= 6.03D-03 DXMaxT set to 5.05D-01
 ITU=  1  1  1  0
     Eigenvalues ---    0.02070   0.02070   0.02070   0.02070   0.02070
     Eigenvalues ---    0.02070   0.02070   0.02070   0.02070   0.15912
     Eigenvalues ---    0.16000   0.16000   0.16000   0.16000   0.16000
     Eigenvalues ---    0.19469   0.22000   0.22026   0.34987   0.36510
     Eigenvalues ---    0.37229   0.37230   0.37230   0.37535   0.40942
     Eigenvalues ---    0.41246   0.45389   0.45389   0.45558   0.45900
 En-DIIS/RFO-DIIS/Sim-DIIS IScMMF=       -3 using points:     4    3
 RFO step:  Lambda=-4.76118250D-08.
 Use linear search instead of GDIIS.
 RFO step:  Lambda=-5.26916466D-08 EMin= 2.07023650D-02
 Quartic linear search produced a step of  0.00927.
 Iteration  1 RMS(Cart)=  0.00008870 RMS(Int)=  0.00000001
 Iteration  2 RMS(Cart)=  0.00000001 RMS(Int)=  0.00000000
 Variable       Old X    -DE/DX   Delta X   Delta X   Delta X     New X
                                 (Linear)    (Quad)   (Total)
    R1        2.63924  -0.00001   0.00000  -0.00001  -0.00001   2.63923
    R2        2.63926   0.00000  -0.00001   0.00000  -0.00002   2.63924
    R3        2.05408   0.00003   0.00002   0.00007   0.00008   2.05416
    R4        2.63924  -0.00001   0.00000  -0.00001  -0.00001   2.63923
    R5        2.05416   0.00000   0.00004  -0.00004   0.00000   2.05416
    R6        2.63926   0.00000  -0.00001   0.00000  -0.00002   2.63924
    R7        2.05408   0.00003   0.00002   0.00007   0.00008   2.05416
    R8        2.63916   0.00003   0.00000   0.00006   0.00006   2.63923
    R9        2.05423  -0.00003   0.00001  -0.00008  -0.00007   2.05416
   R10        2.63916   0.00003   0.00000   0.00006   0.00006   2.63923
   R11        2.05419  -0.00001   0.00001  -0.00002  -0.00001   2.05418
   R12        2.05423  -0.00003   0.00001  -0.00008  -0.00007   2.05416
    A1        2.09427   0.00002   0.00000   0.00011   0.00012   2.09438
    A2        2.09446  -0.00002   0.00000  -0.00009  -0.00009   2.09437
    A3        2.09445  -0.00001   0.00000  -0.00002  -0.00003   2.09443
    A4        2.09461  -0.00003   0.00000  -0.00018  -0.00019   2.09442
    A5        2.09429   0.00002   0.00000   0.00009   0.00009   2.09438
    A6        2.09429   0.00002   0.00000   0.00009   0.00009   2.09438
    A7        2.09427   0.00002   0.00000   0.00011   0.00012   2.09438
    A8        2.09447  -0.00002   0.00000  -0.00009  -0.00009   2.09437
    A9        2.09445  -0.00001   0.00000  -0.00002  -0.00003   2.09443
   A10        2.09430   0.00002   0.00000   0.00008   0.00008   2.09438
   A11        2.09457  -0.00002  -0.00001  -0.00012  -0.00013   2.09445
   A12        2.09431   0.00001   0.00001   0.00004   0.00005   2.09436
   A13        2.09462  -0.00005   0.00000  -0.00020  -0.00020   2.09442
   A14        2.09428   0.00002   0.00000   0.00010   0.00010   2.09438
   A15        2.09428   0.00002   0.00000   0.00010   0.00010   2.09438
   A16        2.09430   0.00002   0.00000   0.00008   0.00008   2.09438
   A17        2.09457  -0.00002  -0.00001  -0.00012  -0.00013   2.09444
   A18        2.09431   0.00001   0.00001   0.00004   0.00005   2.09436
    D1        0.00000   0.00000   0.00000   0.00000   0.00000   0.00000
    D2        3.14159   0.00000   0.00000   0.00000   0.00000   3.14159
    D3        3.14159   0.00000   0.00000   0.00000   0.00000   3.14159
    D4        0.00000   0.00000   0.00000   0.00000   0.00000   0.00000
    D5        0.00000   0.00000   0.00000   0.00000   0.00000   0.00000
    D6        3.14159   0.00000   0.00000   0.00000   0.00000   3.14159
    D7        3.14159   0.00000   0.00000   0.00000   0.00000   3.14159
    D8        0.00000   0.00000   0.00000   0.00000   0.00000   0.00000
    D9        0.00000   0.00000   0.00000   0.00000   0.00000   0.00000
   D10        3.14159   0.00000   0.00000   0.00000   0.00000   3.14159
   D11        3.14159   0.00000   0.00000   0.00000   0.00000   3.14159
   D12        0.00000   0.00000   0.00000   0.00000   0.00000   0.00000
   D13        0.00000   0.00000   0.00000   0.00000   0.00000   0.00000
   D14        3.14159   0.00000   0.00000   0.00000   0.00000   3.14159
   D15        3.14159   0.00000   0.00000   0.00000   0.00000   3.14159
   D16        0.00000   0.00000   0.00000   0.00000   0.00000   0.00000
   D17        0.00000   0.00000   0.00000   0.00000   0.00000   0.00000
   D18        3.14159   0.00000   0.00000   0.00000   0.00000   3.14159
   D19        3.14159   0.00000   0.00000   0.00000   0.00000   3.14159
   D20        0.00000   0.00000   0.00000   0.00000   0.00000   0.00000
   D21        0.00000   0.00000   0.00000   0.00000   0.00000   0.00000
   D22        3.14159   0.00000   0.00000   0.00000   0.00000   3.14159
   D23        3.14159   0.00000   0.00000   0.00000   0.00000   3.14159
   D24        0.00000   0.00000   0.00000   0.00000   0.00000   0.00000
         Item               Value     Threshold  Converged?
 Maximum Force            0.000047     0.000450     YES
 RMS     Force            0.000016     0.000300     YES
 Maximum Displacement     0.000259     0.001800     YES
 RMS     Displacement     0.000089     0.001200     YES
 Predicted change in Energy=-2.690416D-08
 Optimization completed.
    -- Stationary point found.
                           ----------------------------
                           !   Optimized Parameters   !
                           ! (Angstroms and Degrees)  !
 --------------------------                            --------------------------
 ! Name  Definition              Value          Derivative Info.                !
 --------------------------------------------------------------------------------
 ! R1    R(1,2)                  1.3966         -DE/DX =    0.0                 !
 ! R2    R(1,6)                  1.3966         -DE/DX =    0.0                 !
 ! R3    R(1,7)                  1.087          -DE/DX =    0.0                 !
 ! R4    R(2,3)                  1.3966         -DE/DX =    0.0                 !
 ! R5    R(2,8)                  1.087          -DE/DX =    0.0                 !
 ! R6    R(3,4)                  1.3966         -DE/DX =    0.0                 !
 ! R7    R(3,9)                  1.087          -DE/DX =    0.0                 !
 ! R8    R(4,5)                  1.3966         -DE/DX =    0.0                 !
 ! R9    R(4,10)                 1.0871         -DE/DX =    0.0                 !
 ! R10   R(5,6)                  1.3966         -DE/DX =    0.0                 !
 ! R11   R(5,11)                 1.087          -DE/DX =    0.0                 !
 ! R12   R(6,12)                 1.0871         -DE/DX =    0.0                 !
 ! A1    A(2,1,6)              119.9927         -DE/DX =    0.0                 !
 ! A2    A(2,1,7)              120.0039         -DE/DX =    0.0                 !
 ! A3    A(6,1,7)              120.0034         -DE/DX =    0.0                 !
 ! A4    A(1,2,3)              120.0123         -DE/DX =    0.0                 !
 ! A5    A(1,2,8)              119.9938         -DE/DX =    0.0                 !
 ! A6    A(3,2,8)              119.9939         -DE/DX =    0.0                 !
 ! A7    A(2,3,4)              119.9926         -DE/DX =    0.0                 !
 ! A8    A(2,3,9)              120.004          -DE/DX =    0.0                 !
 ! A9    A(4,3,9)              120.0034         -DE/DX =    0.0                 !
 ! A10   A(3,4,5)              119.9947         -DE/DX =    0.0                 !
 ! A11   A(3,4,10)             120.0102         -DE/DX =    0.0                 !
 ! A12   A(5,4,10)             119.995          -DE/DX =    0.0                 !
 ! A13   A(4,5,6)              120.0131         -DE/DX =    0.0                 !
 ! A14   A(4,5,11)             119.9934         -DE/DX =    0.0                 !
 ! A15   A(6,5,11)             119.9935         -DE/DX =    0.0                 !
 ! A16   A(1,6,5)              119.9947         -DE/DX =    0.0                 !
 ! A17   A(1,6,12)             120.0102         -DE/DX =    0.0                 !
 ! A18   A(5,6,12)             119.9952         -DE/DX =    0.0                 !
 ! D1    D(6,1,2,3)              0.0            -DE/DX =    0.0                 !
 ! D2    D(6,1,2,8)            180.0            -DE/DX =    0.0                 !
 ! D3    D(7,1,2,3)            180.0            -DE/DX =    0.0                 !
 ! D4    D(7,1,2,8)              0.0            -DE/DX =    0.0                 !
 ! D5    D(2,1,6,5)              0.0            -DE/DX =    0.0                 !
 ! D6    D(2,1,6,12)           180.0            -DE/DX =    0.0                 !
 ! D7    D(7,1,6,5)            180.0            -DE/DX =    0.0                 !
 ! D8    D(7,1,6,12)             0.0            -DE/DX =    0.0                 !
 ! D9    D(1,2,3,4)              0.0            -DE/DX =    0.0                 !
 ! D10   D(1,2,3,9)            180.0            -DE/DX =    0.0                 !
 ! D11   D(8,2,3,4)            180.0            -DE/DX =    0.0                 !
 ! D12   D(8,2,3,9)              0.0            -DE/DX =    0.0                 !
 ! D13   D(2,3,4,5)              0.0            -DE/DX =    0.0                 !
 ! D14   D(2,3,4,10)           180.0            -DE/DX =    0.0                 !
 ! D15   D(9,3,4,5)            180.0            -DE/DX =    0.0                 !
 ! D16   D(9,3,4,10)             0.0            -DE/DX =    0.0                 !
 ! D17   D(3,4,5,6)              0.0            -DE/DX =    0.0                 !
 ! D18   D(3,4,5,11)           180.0            -DE/DX =    0.0                 !
 ! D19   D(10,4,5,6)           180.0            -DE/DX =    0.0                 !
 ! D20   D(10,4,5,11)            0.0            -DE/DX =    0.0                 !
 ! D21   D(4,5,6,1)              0.0            -DE/DX =    0.0                 !
 ! D22   D(4,5,6,12)           180.0            -DE/DX =    0.0                 !
 ! D23   D(11,5,6,1)           180.0            -DE/DX =    0.0                 !
 ! D24   D(11,5,6,12)            0.0            -DE/DX =    0.0                 !
 --------------------------------------------------------------------------------
 GradGradGradGradGradGradGradGradGradGradGradGradGradGradGradGradGradGrad

                          Input orientation:                          
 ---------------------------------------------------------------------
 Center     Atomic      Atomic             Coordinates (Angstroms)
 Number     Number       Type             X           Y           Z
 ---------------------------------------------------------------------
      1          6           0       -0.069326    1.356686    0.000000
      2          6           0        1.140113    0.658244    0.000000
      3          6           0        1.140262   -0.738381    0.000000
      4          6           0       -0.069276   -1.436673    0.000000
      5          6           0       -1.278675   -0.738243    0.000000
      6          6           0       -1.278834    0.658342    0.000000
      7          1           0       -0.069284    2.443656    0.000000
      8          1           0        2.081496    1.201754    0.000000
      9          1           0        2.081626   -1.281831    0.000000
     10          1           0       -0.069493   -2.523726    0.000000
     11          1           0       -2.220070   -1.281760    0.000000
     12          1           0       -2.220358    1.201682    0.000000
 ---------------------------------------------------------------------
                    Distance matrix (angstroms):
                    1          2          3          4          5
     1  C    0.000000
     2  C    1.396625   0.000000
     3  C    2.419176   1.396626   0.000000
     4  C    2.793359   2.418946   1.396637   0.000000
     5  C    2.418936   2.792975   2.418937   1.396585   0.000000
     6  C    1.396637   2.418947   2.793361   2.419116   1.396586
     7  H    1.086970   2.156464   3.404169   3.880329   3.403984
     8  H    2.156395   1.087017   2.156396   3.403986   3.879992
     9  H    3.404169   2.156465   1.086970   2.156468   3.403984
    10  H    3.880412   3.404127   2.156610   1.087053   2.156402
    11  H    3.403982   3.880006   3.403982   2.156366   1.087031
    12  H    2.156609   3.404128   3.880414   3.404126   2.156403
                    6          7          8          9         10
     6  C    0.000000
     7  H    2.156468   0.000000
     8  H    3.403985   2.483582   0.000000
     9  H    3.880331   4.301822   2.483585   0.000000
    10  H    3.404125   4.967382   4.301855   2.483871   0.000000
    11  H    2.156368   4.301697   4.967022   4.301696   2.483438
    12  H    1.087053   2.483871   4.301854   4.967384   4.301730
                   11         12
    11  H    0.000000
    12  H    2.483441   0.000000
 Symmetry turned off by external request.
 Stoichiometry    C6H6
 Framework group  CS[SG(C6H6)]
 Deg. of freedom    21
 Full point group                 CS      NOp   2
 Rotational constants (GHZ):           5.6872690           5.6862564           2.8433813

 **********************************************************************

            Population analysis using the SCF density.

 **********************************************************************

 Alpha  occ. eigenvalues --  -10.18774 -10.18748 -10.18747 -10.18693 -10.18692
 Alpha  occ. eigenvalues --  -10.18666  -0.84633  -0.73984  -0.73983  -0.59750
 Alpha  occ. eigenvalues --   -0.59748  -0.51855  -0.45929  -0.43811  -0.41728
 Alpha  occ. eigenvalues --   -0.41724  -0.35940  -0.34029  -0.34025  -0.24630
 Alpha  occ. eigenvalues --   -0.24629
 Alpha virt. eigenvalues --    0.00361   0.00363   0.09074   0.14469   0.14469
 Alpha virt. eigenvalues --    0.16395   0.18184   0.18186   0.19026   0.30265
 Alpha virt. eigenvalues --    0.30267   0.31913   0.31916   0.47488   0.52736
 Alpha virt. eigenvalues --    0.54904   0.55030   0.56397   0.59251   0.60201
 Alpha virt. eigenvalues --    0.60201   0.60206   0.60207   0.62678   0.62680
 Alpha virt. eigenvalues --    0.66753   0.66754   0.74487   0.84000   0.84000
 Alpha virt. eigenvalues --    0.84110   0.86498   0.86503   0.93901   0.93907
 Alpha virt. eigenvalues --    0.94062   0.95799   1.08260   1.08263   1.14239
 Alpha virt. eigenvalues --    1.14239   1.20100   1.26189   1.39628   1.43633
 Alpha virt. eigenvalues --    1.43643   1.48694   1.48701   1.51539   1.51546
 Alpha virt. eigenvalues --    1.75689   1.78987   1.85728   1.89560   1.97349
 Alpha virt. eigenvalues --    1.97357   2.06595   2.06607   2.15160   2.15169
 Alpha virt. eigenvalues --    2.15438   2.15446   2.30941   2.30957   2.32164
 Alpha virt. eigenvalues --    2.54574   2.54575   2.65691   2.70540   2.70543
 Alpha virt. eigenvalues --    2.72191   2.72195   2.76006   3.01698   3.41018
 Alpha virt. eigenvalues --    4.08520   4.11773   4.11774   4.33033   4.33035
 Alpha virt. eigenvalues --    4.66589
          Condensed to atoms (all electrons):
               1          2          3          4          5          6
     1  C    4.848870   0.551495  -0.031934  -0.040903  -0.031949   0.551469
     2  C    0.551495   4.848881   0.551495  -0.031942  -0.040915  -0.031943
     3  C   -0.031934   0.551495   4.848873   0.551469  -0.031950  -0.040903
     4  C   -0.040903  -0.031942   0.551469   4.848857   0.551523  -0.031941
     5  C   -0.031949  -0.040915  -0.031950   0.551523   4.848814   0.551523
     6  C    0.551469  -0.031943  -0.040903  -0.031941   0.551523   4.848860
     7  H    0.358905  -0.043770   0.004783   0.000578   0.004785  -0.043777
     8  H   -0.043781   0.358898  -0.043781   0.004785   0.000579   0.004785
     9  H    0.004783  -0.043770   0.358906  -0.043777   0.004785   0.000578
    10  H    0.000578   0.004783  -0.043773   0.358893  -0.043770   0.004785
    11  H    0.004787   0.000579   0.004787  -0.043782   0.358892  -0.043782
    12  H   -0.043772   0.004783   0.000578   0.004785  -0.043770   0.358894
               7          8          9         10         11         12
     1  C    0.358905  -0.043781   0.004783   0.000578   0.004787  -0.043772
     2  C   -0.043770   0.358898  -0.043770   0.004783   0.000579   0.004783
     3  C    0.004783  -0.043781   0.358906  -0.043773   0.004787   0.000578
     4  C    0.000578   0.004785  -0.043777   0.358893  -0.043782   0.004785
     5  C    0.004785   0.000579   0.004785  -0.043770   0.358892  -0.043770
     6  C   -0.043777   0.004785   0.000578   0.004785  -0.043782   0.358894
     7  H    0.602019  -0.005873  -0.000182   0.000016  -0.000182  -0.005867
     8  H   -0.005873   0.602072  -0.005873  -0.000182   0.000016  -0.000182
     9  H   -0.000182  -0.005873   0.602018  -0.005867  -0.000182   0.000016
    10  H    0.000016  -0.000182  -0.005867   0.602036  -0.005875  -0.000182
    11  H   -0.000182   0.000016  -0.000182  -0.005875   0.602088  -0.005875
    12  H   -0.005867  -0.000182   0.000016  -0.000182  -0.005875   0.602034
 Mulliken charges:
               1
     1  C   -0.128548
     2  C   -0.128574
     3  C   -0.128551
     4  C   -0.128546
     5  C   -0.128547
     6  C   -0.128548
     7  H    0.128565
     8  H    0.128536
     9  H    0.128566
    10  H    0.128558
    11  H    0.128530
    12  H    0.128559
 Sum of Mulliken charges =   0.00000
 Mulliken charges with hydrogens summed into heavy atoms:
               1
     1  C    0.000017
     2  C   -0.000038
     3  C    0.000016
     4  C    0.000012
     5  C   -0.000017
     6  C    0.000011
 Electronic spatial extent (au):  <R**2>=            459.2780
 Charge=              0.0000 electrons
 Dipole moment (field-independent basis, Debye):
    X=              0.0000    Y=              0.0000    Z=              0.0000  Tot=              0.0000
 Quadrupole moment (field-independent basis, Debye-Ang):
   XX=            -31.4031   YY=            -31.4023   ZZ=            -38.6008
   XY=             -0.0007   XZ=              0.0000   YZ=              0.0000
 Traceless Quadrupole moment (field-independent basis, Debye-Ang):
   XX=              2.3990   YY=              2.3998   ZZ=             -4.7988
   XY=             -0.0007   XZ=              0.0000   YZ=              0.0000
 Octapole moment (field-independent basis, Debye-Ang**2):
  XXX=              6.5285  YYY=              3.7693  ZZZ=              0.0000  XYY=              2.1762
  XXY=              1.2563  XXZ=              0.0000  XZZ=              2.6750  YZZ=              1.5444
  YYZ=              0.0000  XYZ=              0.0000
 Hexadecapole moment (field-independent basis, Debye-Ang**3):
 XXXX=           -271.0562 YYYY=           -270.4634 ZZZZ=            -40.0520 XXXY=             -0.2615
 XXXZ=              0.0000 YYYX=             -0.2520 YYYZ=              0.0000 ZZZX=              0.0000
 ZZZY=              0.0000 XXYY=            -90.2569 XXZZ=            -60.5549 YYZZ=            -60.4346
 XXYZ=              0.0000 YYXZ=              0.0000 ZZXY=             -0.1042
 N-N= 2.031866351925D+02 E-N=-9.437108175648D+02  KE= 2.299258715067D+02
 1|1|UNPC-LAB102|FOpt|RB3LYP|6-31G(d)|C6H6|11032|01-Apr-2025|0||# opt b
 3lyp/6-31g(d) nosym||Title Card Required||0,1|C,-0.0693258864,1.356686
 1115,0.0000000006|C,1.1401126212,0.6582443477,-0.0000000008|C,1.140262
 3814,-0.7383812456,0.0000000004|C,-0.0692756662,-1.436673315,0.0000000
 001|C,-1.2786745378,-0.7382431182,-0.0000000002|C,-1.2788340693,0.6583
 424061,-0.0000000001|H,-0.0692842006,2.4436559326,0.0000000004|H,2.081
 4963188,1.201753815,-0.0000000005|H,2.0816259792,-1.2818313201,0.00000
 00003|H,-0.0694932448,-2.5237262761,0.|H,-2.220070085,-1.2817595468,-0
 .0000000001|H,-2.2203576105,1.2016817088,-0.0000000001||Version=IA32W-
 G16RevA.03|HF=-232.2486496|RMSD=5.795e-009|RMSF=2.588e-005|Dipole=-0.0
 000069,-0.000004,0.|Quadrupole=1.7835746,1.7841869,-3.5677615,-0.00054
 21,0.,0.|PG=CS [SG(C6H6)]||@


 The arm of the moral universe is long, but it bends toward justice.
 -- Martin Luther King, Jr.
 Job cpu time:       0 days  0 hours  2 minutes 53.0 seconds.
 Elapsed time:       0 days  0 hours  2 minutes 40.0 seconds.
 File lengths (MBytes):  RWF=     10 Int=      0 D2E=      0 Chk=      2 Scr=      1
 Normal termination of Gaussian 16 at Tue Apr 01 14:58:48 2025.
